
  ___ ___ ___ _ _ _  
 |   |   |_  | | | | 
 | | | | | . | | | | 
 |__ |  _|___|_____|  24.6.0
 |___|_|             

User:   ac2uoma125@k01r3n00
Date:   Wed Sep 18 22:04:19 2024
Arch:   x86_64
Pid:    9673
CWD:    /work/home/ac2uoma125/gpaw/pbe_nvcenter_215/tri_gs_relax
Python: 3.12.5
gpaw:   /work/home/ac2uoma125/anaconda3/envs/gpaw2460/lib/python3.12/site-packages/gpaw
_gpaw:  /work/home/ac2uoma125/anaconda3/envs/gpaw2460/lib/python3.12/site-packages/
        _gpaw.cpython-312-x86_64-linux-gnu.so
ase:    /work/home/ac2uoma125/anaconda3/envs/gpaw2460/lib/python3.12/site-packages/ase (version 3.23.0)
numpy:  /work/home/ac2uoma125/anaconda3/envs/gpaw2460/lib/python3.12/site-packages/numpy (version 1.26.4)
scipy:  /work/home/ac2uoma125/anaconda3/envs/gpaw2460/lib/python3.12/site-packages/scipy (version 1.14.1)
libxc:  6.2.2
units:  Angstrom and eV
cores: 64
OpenMP: True
OMP_NUM_THREADS: 1

Input parameters:
  charge: -1
  eigensolver: {blocksize: 1,
                converge_unocc: True,
                excited_state: False,
                functional: {'name': 'ks'},
                grad_tol_inner_loop: 0.0005,
                grad_tol_pz_localization: 0.0005,
                linesearch_algo: {'name': 'max-step', 'max_step': 0.2},
                localization_tol: None,
                localizationseed: None,
                localizationtype: None,
                max_step_inner_loop: 0.2,
                maxiter_inner_loop: 6,
                maxiter_pz_localization: 50,
                maxiter_unocc: 333,
                momevery: 10,
                name: etdm-fdpw,
                need_init_orbs: True,
                need_localization: False,
                printinnerloop: False,
                restart_canonical: True,
                restartevery_iloop_notconverged: 3,
                searchdir_algo: {'name': 'l-bfgs', 'memory': 3},
                use_prec: True}
  mixer: {backend: no-mixing}
  mode: {ecut: 600.0,
         name: pw}
  nbands: -12
  occupations: {name: fixed-uniform}
  spinpol: True
  symmetry: off
  xc: PBE

System changes: positions, numbers, cell, pbc, initial_charges, initial_magmoms 

Initialize ...

species:
  C:
    name: Carbon
    id: 4aa54d4b901d75f77cc0ea3eec22967b
    Z: 6.0
    valence: 4
    core: 2
    charge: 0.0
    file: /work/home/ac2uoma125/anaconda3/envs/gpaw2460/share/gpaw/C.PBE.gz
    compensation charges: {type: gauss,
                           rc: 0.20,
                           lmax: 2}
    cutoffs: {filter: 1.14,
              core: 1.14}
    projectors:
      #              energy  rcut
      - 2s(2.00)   -13.751   0.635
      - 2p(2.00)    -5.284   0.635
      -  s          13.461   0.635
      -  p          21.927   0.635
      -  d           0.000   0.635
  
    # Using partial waves for C as LCAO basis

  N:
    name: Nitrogen
    id: f7500608b86eaa90eef8b1d9a670dc53
    Z: 7.0
    valence: 5
    core: 2
    charge: 0.0
    file: /work/home/ac2uoma125/anaconda3/envs/gpaw2460/share/gpaw/N.PBE.gz
    compensation charges: {type: gauss,
                           rc: 0.18,
                           lmax: 2}
    cutoffs: {filter: 1.11,
              core: 0.96}
    projectors:
      #              energy  rcut
      - 2s(2.00)   -18.583   0.603
      - 2p(3.00)    -7.089   0.529
      -  s           8.629   0.603
      -  p          20.123   0.529
      -  d           0.000   0.577
  
    # Using partial waves for N as LCAO basis

Reference energy: -221394.138216  # eV

Spin-polarized calculation.
Magnetic moment: 2.000000

Convergence criteria:
 Maximum [total energy] change in last 3 cyles: 0.0005 eV / valence electron
 Maximum integral of absolute [dens]ity change: 0.0001 electrons / valence electron
 Maximum integral of absolute [eigenst]ate change: 4e-08 eV^2 / valence electron
 Maximum number of scf [iter]ations: 333
 (Square brackets indicate name in SCF output, whereas a 'c' in
 the SCF output indicates the quantity has converged.)

Symmetries present (total): 1

  ( 1  0  0)
  ( 0  1  0)
  ( 0  0  1)

1 k-point (Gamma)
1 k-point in the irreducible part of the Brillouin zone
       k-points in crystal coordinates                weights
   0:     0.00000000    0.00000000    0.00000000          1/1

Wave functions: Plane wave expansion
  Cutoff energy: 600.000 eV
  Number of coefficients: 40243 (reduced to 20122)
  Pulay-stress correction: 0.000000 eV/Ang^3 (de/decut=0.000000)
  Using FFTW library
  ScaLapack parameters: grid=1x1, blocksize=None
  Wavefunction extrapolation:
    Improved wavefunction reuse through dual PAW basis 

Occupation numbers: # Uniform distribution of occupation numbers 

Eigensolver
   Direct minimisation using exponential transformation.
       Search direction: L-BFGS algorithm
       Line search: step size equals one
       Preconditioning: True
       Orbital-density self-interaction corrections: ks
       WARNING: do not use it for metals as occupation numbers are
                not found variationally
 

Densities:
  Coarse grid: 63*63*63 grid
  Fine grid: 126*126*126 grid
  Total Charge: -1.000000 

Density mixing:
  Method: difference
  Backend: no-mixing
  Linear mixing parameter: 0
  old densities: 0
  Damping of long wavelength oscillations: 0 

Hamiltonian:
  XC and Coulomb potentials evaluated on a 126*126*126 grid
  Using the PBE Exchange-Correlation functional
  External potential:
    NoExternalPotential
Poisson solver:
  Uniform background charge: -1.000 electrons
 

XC parameters: PBE with 2 nearest neighbor stencil

Memory estimate:
  Process memory now: 335.91 MiB
Attribute error: AttributeError("'FDPWETDM' object has no attribute 'estimate_memory'")
Some object probably lacks estimate_memory() method
Memory breakdown may be incomplete
  Calculator: 7.03 MiB
    Density: 1.93 MiB
      Arrays: 1.09 MiB
      Localized functions: 0.83 MiB
      Mixer: 0.00 MiB
    Hamiltonian: 0.83 MiB
      Arrays: 0.81 MiB
      XC: 0.00 MiB
      Poisson: 0.00 MiB
      vbar: 0.02 MiB
    Wavefunctions: 4.27 MiB
      Arrays psit_nG: 4.27 MiB

Total number of cores used: 64
Domain decomposition: 4 x 4 x 4

Number of atoms: 215
Number of atomic orbitals: 860
Number of bands in calculation: 444
Number of valence electrons: 862
Bands to converge: all

... initialized

Initializing position-dependent things.

Density initialized from atomic densities
Creating initial wave functions:
  444 bands from LCAO basis set

        .-------------------------.  
       /|                         |  
      / | C       C        C      |  
     / C|    C  C    C  C     C   |  
    /  C| C   C C  C   C C C   C  |  
   /    C CC     C CC     N CC    |  
  /  C  | C CCC   C C C    C C    |  
 *    C C    CCCC    C C C    C   |  
 |C    CCC C  C CCC C  CCCCC   C  |  
 | C C  C C C C  C C C C  CCC     |  
 |  CCC | CCCC C  C CCC C  C C    |  
 C   CC C C   C C C   CC C        |  
 |C   CCCC C CCCCC  CC CCCC   CC  |  
 | C   C.CC-C---C-CC-C---C-C------.  
 |  CCC/C CCCCCC C CCCCCC C CC   /   
 |   CC     C C     C CC     C  /    
 C   /C CCC    CCCC    C CC    /     
 |C /    C C      C C      C  /      
 | /CC      C C      C C     /       
 |/   C        C        C   /        
 C--------C-------C--------*         

Positions:
   0 C      0.000000    0.000000    0.000000    ( 0.0000,  0.0000,  0.0000)
   1 C      0.000000    1.773216    1.773216    ( 0.0000,  0.0000,  0.0000)
   2 C      1.773216    1.773216    0.000000    ( 0.0000,  0.0000,  0.0000)
   3 C      1.773216    0.000000    1.773216    ( 0.0000,  0.0000,  0.0000)
   4 C      2.659824    0.886608    2.659824    ( 0.0000,  0.0000,  0.0000)
   5 C      0.886608    0.886608    0.886608    ( 0.0000,  0.0000,  0.0000)
   6 C      0.886608    2.659824    2.659824    ( 0.0000,  0.0000,  0.0000)
   7 C      2.659824    2.659824    0.886608    ( 0.0000,  0.0000,  0.0000)
   8 C      0.000000    0.000000    3.546432    ( 0.0000,  0.0000,  0.0000)
   9 C      0.000000    1.773216    5.319648    ( 0.0000,  0.0000,  0.0000)
  10 C      1.773216    1.773216    3.546432    ( 0.0000,  0.0000,  0.0000)
  11 C      1.773216    0.000000    5.319648    ( 0.0000,  0.0000,  0.0000)
  12 C      2.659824    0.886608    6.206256    ( 0.0000,  0.0000,  0.0000)
  13 C      0.886608    0.886608    4.433040    ( 0.0000,  0.0000,  0.0000)
  14 C      0.886608    2.659824    6.206256    ( 0.0000,  0.0000,  0.0000)
  15 C      2.659824    2.659824    4.433040    ( 0.0000,  0.0000,  0.0000)
  16 C      0.000000    0.000000    7.092864    ( 0.0000,  0.0000,  0.0000)
  17 C      0.000000    1.773216    8.866079    ( 0.0000,  0.0000,  0.0000)
  18 C      1.773216    1.773216    7.092864    ( 0.0000,  0.0000,  0.0000)
  19 C      1.773216    0.000000    8.866079    ( 0.0000,  0.0000,  0.0000)
  20 C      2.659824    0.886608    9.752687    ( 0.0000,  0.0000,  0.0000)
  21 C      0.886608    0.886608    7.979471    ( 0.0000,  0.0000,  0.0000)
  22 C      0.886608    2.659824    9.752687    ( 0.0000,  0.0000,  0.0000)
  23 C      2.659824    2.659824    7.979471    ( 0.0000,  0.0000,  0.0000)
  24 C      0.000000    3.546432    0.000000    ( 0.0000,  0.0000,  0.0000)
  25 C      0.000000    5.319648    1.773216    ( 0.0000,  0.0000,  0.0000)
  26 C      1.773216    5.319648    0.000000    ( 0.0000,  0.0000,  0.0000)
  27 C      1.773216    3.546432    1.773216    ( 0.0000,  0.0000,  0.0000)
  28 C      2.659824    4.433040    2.659824    ( 0.0000,  0.0000,  0.0000)
  29 C      0.886608    4.433040    0.886608    ( 0.0000,  0.0000,  0.0000)
  30 C      0.886608    6.206256    2.659824    ( 0.0000,  0.0000,  0.0000)
  31 C      2.659824    6.206256    0.886608    ( 0.0000,  0.0000,  0.0000)
  32 C      0.000000    3.546432    3.546432    ( 0.0000,  0.0000,  0.0000)
  33 C      0.000000    5.319648    5.319648    ( 0.0000,  0.0000,  0.0000)
  34 C      1.773216    5.319648    3.546432    ( 0.0000,  0.0000,  0.0000)
  35 C      1.773216    3.546432    5.319648    ( 0.0000,  0.0000,  0.0000)
  36 C      2.659824    4.433040    6.206256    ( 0.0000,  0.0000,  0.0000)
  37 C      0.886608    4.433040    4.433040    ( 0.0000,  0.0000,  0.0000)
  38 C      0.886608    6.206256    6.206256    ( 0.0000,  0.0000,  0.0000)
  39 C      2.659824    6.206256    4.433040    ( 0.0000,  0.0000,  0.0000)
  40 C      0.000000    3.546432    7.092864    ( 0.0000,  0.0000,  0.0000)
  41 C      0.000000    5.319648    8.866079    ( 0.0000,  0.0000,  0.0000)
  42 C      1.773216    5.319648    7.092864    ( 0.0000,  0.0000,  0.0000)
  43 C      1.773216    3.546432    8.866079    ( 0.0000,  0.0000,  0.0000)
  44 C      2.659824    4.433040    9.752687    ( 0.0000,  0.0000,  0.0000)
  45 C      0.886608    4.433040    7.979471    ( 0.0000,  0.0000,  0.0000)
  46 C      0.886608    6.206256    9.752687    ( 0.0000,  0.0000,  0.0000)
  47 C      2.659824    6.206256    7.979471    ( 0.0000,  0.0000,  0.0000)
  48 C      0.000000    7.092864    0.000000    ( 0.0000,  0.0000,  0.0000)
  49 C      0.000000    8.866079    1.773216    ( 0.0000,  0.0000,  0.0000)
  50 C      1.773216    8.866079    0.000000    ( 0.0000,  0.0000,  0.0000)
  51 C      1.773216    7.092864    1.773216    ( 0.0000,  0.0000,  0.0000)
  52 C      2.659824    7.979471    2.659824    ( 0.0000,  0.0000,  0.0000)
  53 C      0.886608    7.979471    0.886608    ( 0.0000,  0.0000,  0.0000)
  54 C      0.886608    9.752687    2.659824    ( 0.0000,  0.0000,  0.0000)
  55 C      2.659824    9.752687    0.886608    ( 0.0000,  0.0000,  0.0000)
  56 C      0.000000    7.092864    3.546432    ( 0.0000,  0.0000,  0.0000)
  57 C      0.000000    8.866079    5.319648    ( 0.0000,  0.0000,  0.0000)
  58 C      1.773216    8.866079    3.546432    ( 0.0000,  0.0000,  0.0000)
  59 C      1.773216    7.092864    5.319648    ( 0.0000,  0.0000,  0.0000)
  60 C      2.659824    7.979471    6.206256    ( 0.0000,  0.0000,  0.0000)
  61 C      0.886608    7.979471    4.433040    ( 0.0000,  0.0000,  0.0000)
  62 C      0.886608    9.752687    6.206256    ( 0.0000,  0.0000,  0.0000)
  63 C      2.659824    9.752687    4.433040    ( 0.0000,  0.0000,  0.0000)
  64 C      0.000000    7.092864    7.092864    ( 0.0000,  0.0000,  0.0000)
  65 C      0.000000    8.866079    8.866079    ( 0.0000,  0.0000,  0.0000)
  66 C      1.773216    8.866079    7.092864    ( 0.0000,  0.0000,  0.0000)
  67 C      1.773216    7.092864    8.866079    ( 0.0000,  0.0000,  0.0000)
  68 C      2.659824    7.979471    9.752687    ( 0.0000,  0.0000,  0.0000)
  69 C      0.886608    7.979471    7.979471    ( 0.0000,  0.0000,  0.0000)
  70 C      0.886608    9.752687    9.752687    ( 0.0000,  0.0000,  0.0000)
  71 C      2.659824    9.752687    7.979471    ( 0.0000,  0.0000,  0.0000)
  72 C      3.546432    0.000000    0.000000    ( 0.0000,  0.0000,  0.0000)
  73 C      3.546432    1.773216    1.773216    ( 0.0000,  0.0000,  0.0000)
  74 C      5.319648    1.773216    0.000000    ( 0.0000,  0.0000,  0.0000)
  75 C      5.319648    0.000000    1.773216    ( 0.0000,  0.0000,  0.0000)
  76 C      6.206256    0.886608    2.659824    ( 0.0000,  0.0000,  0.0000)
  77 C      4.433040    0.886608    0.886608    ( 0.0000,  0.0000,  0.0000)
  78 C      4.433040    2.659824    2.659824    ( 0.0000,  0.0000,  0.0000)
  79 C      6.206256    2.659824    0.886608    ( 0.0000,  0.0000,  0.0000)
  80 C      3.546432    0.000000    3.546432    ( 0.0000,  0.0000,  0.0000)
  81 C      3.546432    1.773216    5.319648    ( 0.0000,  0.0000,  0.0000)
  82 C      5.319648    1.773216    3.546432    ( 0.0000,  0.0000,  0.0000)
  83 C      5.319648    0.000000    5.319648    ( 0.0000,  0.0000,  0.0000)
  84 C      6.206256    0.886608    6.206256    ( 0.0000,  0.0000,  0.0000)
  85 C      4.433040    0.886608    4.433040    ( 0.0000,  0.0000,  0.0000)
  86 C      4.433040    2.659824    6.206256    ( 0.0000,  0.0000,  0.0000)
  87 C      6.206256    2.659824    4.433040    ( 0.0000,  0.0000,  0.0000)
  88 C      3.546432    0.000000    7.092864    ( 0.0000,  0.0000,  0.0000)
  89 C      3.546432    1.773216    8.866079    ( 0.0000,  0.0000,  0.0000)
  90 C      5.319648    1.773216    7.092864    ( 0.0000,  0.0000,  0.0000)
  91 C      5.319648    0.000000    8.866079    ( 0.0000,  0.0000,  0.0000)
  92 C      6.206256    0.886608    9.752687    ( 0.0000,  0.0000,  0.0000)
  93 C      4.433040    0.886608    7.979471    ( 0.0000,  0.0000,  0.0000)
  94 C      4.433040    2.659824    9.752687    ( 0.0000,  0.0000,  0.0000)
  95 C      6.206256    2.659824    7.979471    ( 0.0000,  0.0000,  0.0000)
  96 C      3.546432    3.546432    0.000000    ( 0.0000,  0.0000,  0.0000)
  97 C      3.546432    5.319648    1.773216    ( 0.0000,  0.0000,  0.0000)
  98 C      5.319648    5.319648    0.000000    ( 0.0000,  0.0000,  0.0000)
  99 C      5.319648    3.546432    1.773216    ( 0.0000,  0.0000,  0.0000)
 100 C      6.206256    4.433040    2.659824    ( 0.0000,  0.0000,  0.0000)
 101 C      4.433040    4.433040    0.886608    ( 0.0000,  0.0000,  0.0000)
 102 C      4.433040    6.206256    2.659824    ( 0.0000,  0.0000,  0.0000)
 103 C      6.206256    6.206256    0.886608    ( 0.0000,  0.0000,  0.0000)
 104 C      3.546432    3.546432    3.546432    ( 0.0000,  0.0000,  0.0000)
 105 C      3.546432    5.319648    5.319648    ( 0.0000,  0.0000,  0.0000)
 106 C      5.319648    5.319648    3.546432    ( 0.0000,  0.0000,  0.0000)
 107 C      5.319648    3.546432    5.319648    ( 0.0000,  0.0000,  0.0000)
 108 C      6.206256    4.433040    6.206256    ( 0.0000,  0.0000,  0.0000)
 109 C      4.433040    4.433040    4.433040    ( 0.0000,  0.0000,  0.0000)
 110 C      4.433040    6.206256    6.206256    ( 0.0000,  0.0000,  0.0000)
 111 C      6.206256    6.206256    4.433040    ( 0.0000,  0.0000,  0.0000)
 112 C      3.546432    3.546432    7.092864    ( 0.0000,  0.0000,  0.0000)
 113 C      3.546432    5.319648    8.866079    ( 0.0000,  0.0000,  0.0000)
 114 C      5.319648    5.319648    7.092864    ( 0.0000,  0.0000,  0.0000)
 115 C      5.319648    3.546432    8.866079    ( 0.0000,  0.0000,  0.0000)
 116 C      6.206256    4.433040    9.752687    ( 0.0000,  0.0000,  0.0000)
 117 C      4.433040    4.433040    7.979471    ( 0.0000,  0.0000,  0.0000)
 118 C      4.433040    6.206256    9.752687    ( 0.0000,  0.0000,  0.0000)
 119 C      6.206256    6.206256    7.979471    ( 0.0000,  0.0000,  0.0000)
 120 C      3.546432    7.092864    0.000000    ( 0.0000,  0.0000,  0.0000)
 121 C      3.546432    8.866079    1.773216    ( 0.0000,  0.0000,  0.0000)
 122 C      5.319648    8.866079    0.000000    ( 0.0000,  0.0000,  0.0000)
 123 C      5.319648    7.092864    1.773216    ( 0.0000,  0.0000,  0.0000)
 124 C      6.206256    7.979471    2.659824    ( 0.0000,  0.0000,  0.0000)
 125 C      4.433040    7.979471    0.886608    ( 0.0000,  0.0000,  0.0000)
 126 C      4.433040    9.752687    2.659824    ( 0.0000,  0.0000,  0.0000)
 127 C      6.206256    9.752687    0.886608    ( 0.0000,  0.0000,  0.0000)
 128 C      3.546432    7.092864    3.546432    ( 0.0000,  0.0000,  0.0000)
 129 C      3.546432    8.866079    5.319648    ( 0.0000,  0.0000,  0.0000)
 130 C      5.319648    8.866079    3.546432    ( 0.0000,  0.0000,  0.0000)
 131 C      5.319648    7.092864    5.319648    ( 0.0000,  0.0000,  0.0000)
 132 C      6.206256    7.979471    6.206256    ( 0.0000,  0.0000,  0.0000)
 133 C      4.433040    7.979471    4.433040    ( 0.0000,  0.0000,  0.0000)
 134 C      4.433040    9.752687    6.206256    ( 0.0000,  0.0000,  0.0000)
 135 C      6.206256    9.752687    4.433040    ( 0.0000,  0.0000,  0.0000)
 136 C      3.546432    7.092864    7.092864    ( 0.0000,  0.0000,  0.0000)
 137 C      3.546432    8.866079    8.866079    ( 0.0000,  0.0000,  0.0000)
 138 C      5.319648    8.866079    7.092864    ( 0.0000,  0.0000,  0.0000)
 139 C      5.319648    7.092864    8.866079    ( 0.0000,  0.0000,  0.0000)
 140 C      6.206256    7.979471    9.752687    ( 0.0000,  0.0000,  0.0000)
 141 C      4.433040    7.979471    7.979471    ( 0.0000,  0.0000,  0.0000)
 142 C      4.433040    9.752687    9.752687    ( 0.0000,  0.0000,  0.0000)
 143 C      6.206256    9.752687    7.979471    ( 0.0000,  0.0000,  0.0000)
 144 C      7.092864    0.000000    0.000000    ( 0.0000,  0.0000,  0.0000)
 145 C      7.092864    1.773216    1.773216    ( 0.0000,  0.0000,  0.0000)
 146 C      8.866079    1.773216    0.000000    ( 0.0000,  0.0000,  0.0000)
 147 C      8.866079    0.000000    1.773216    ( 0.0000,  0.0000,  0.0000)
 148 C      9.752687    0.886608    2.659824    ( 0.0000,  0.0000,  0.0000)
 149 C      7.979471    0.886608    0.886608    ( 0.0000,  0.0000,  0.0000)
 150 C      7.979471    2.659824    2.659824    ( 0.0000,  0.0000,  0.0000)
 151 C      9.752687    2.659824    0.886608    ( 0.0000,  0.0000,  0.0000)
 152 C      7.092864    0.000000    3.546432    ( 0.0000,  0.0000,  0.0000)
 153 C      7.092864    1.773216    5.319648    ( 0.0000,  0.0000,  0.0000)
 154 C      8.866079    1.773216    3.546432    ( 0.0000,  0.0000,  0.0000)
 155 C      8.866079    0.000000    5.319648    ( 0.0000,  0.0000,  0.0000)
 156 C      9.752687    0.886608    6.206256    ( 0.0000,  0.0000,  0.0000)
 157 C      7.979471    0.886608    4.433040    ( 0.0000,  0.0000,  0.0000)
 158 C      7.979471    2.659824    6.206256    ( 0.0000,  0.0000,  0.0000)
 159 C      9.752687    2.659824    4.433040    ( 0.0000,  0.0000,  0.0000)
 160 C      7.092864    0.000000    7.092864    ( 0.0000,  0.0000,  0.0000)
 161 C      7.092864    1.773216    8.866079    ( 0.0000,  0.0000,  0.0000)
 162 C      8.866079    1.773216    7.092864    ( 0.0000,  0.0000,  0.0000)
 163 C      8.866079    0.000000    8.866079    ( 0.0000,  0.0000,  0.0000)
 164 C      9.752687    0.886608    9.752687    ( 0.0000,  0.0000,  0.0000)
 165 C      7.979471    0.886608    7.979471    ( 0.0000,  0.0000,  0.0000)
 166 C      7.979471    2.659824    9.752687    ( 0.0000,  0.0000,  0.0000)
 167 C      9.752687    2.659824    7.979471    ( 0.0000,  0.0000,  0.0000)
 168 C      7.092864    3.546432    0.000000    ( 0.0000,  0.0000,  0.0000)
 169 C      7.092864    5.319648    1.773216    ( 0.0000,  0.0000,  0.0000)
 170 C      8.866079    5.319648    0.000000    ( 0.0000,  0.0000,  0.0000)
 171 C      8.866079    3.546432    1.773216    ( 0.0000,  0.0000,  0.0000)
 172 C      9.752687    4.433040    2.659824    ( 0.0000,  0.0000,  0.0000)
 173 C      7.979471    4.433040    0.886608    ( 0.0000,  0.0000,  0.0000)
 174 C      7.979471    6.206256    2.659824    ( 0.0000,  0.0000,  0.0000)
 175 C      9.752687    6.206256    0.886608    ( 0.0000,  0.0000,  0.0000)
 176 C      7.092864    3.546432    3.546432    ( 0.0000,  0.0000,  0.0000)
 177 C      7.092864    5.319648    5.319648    ( 0.0000,  0.0000,  0.0000)
 178 C      8.866079    5.319648    3.546432    ( 0.0000,  0.0000,  0.0000)
 179 C      8.866079    3.546432    5.319648    ( 0.0000,  0.0000,  0.0000)
 180 C      9.752687    4.433040    6.206256    ( 0.0000,  0.0000,  0.0000)
 181 C      7.979471    4.433040    4.433040    ( 0.0000,  0.0000,  0.0000)
 182 C      7.979471    6.206256    6.206256    ( 0.0000,  0.0000,  0.0000)
 183 C      9.752687    6.206256    4.433040    ( 0.0000,  0.0000,  0.0000)
 184 C      7.092864    3.546432    7.092864    ( 0.0000,  0.0000,  0.0000)
 185 C      7.092864    5.319648    8.866079    ( 0.0000,  0.0000,  0.0000)
 186 C      8.866079    5.319648    7.092864    ( 0.0000,  0.0000,  0.0000)
 187 C      8.866079    3.546432    8.866079    ( 0.0000,  0.0000,  0.0000)
 188 C      9.752687    4.433040    9.752687    ( 0.0000,  0.0000,  0.0000)
 189 C      7.979471    4.433040    7.979471    ( 0.0000,  0.0000,  0.0000)
 190 C      7.979471    6.206256    9.752687    ( 0.0000,  0.0000,  0.0000)
 191 C      9.752687    6.206256    7.979471    ( 0.0000,  0.0000,  0.0000)
 192 C      7.092864    7.092864    0.000000    ( 0.0000,  0.0000,  0.0000)
 193 C      7.092864    8.866079    1.773216    ( 0.0000,  0.0000,  0.0000)
 194 C      8.866079    8.866079    0.000000    ( 0.0000,  0.0000,  0.0000)
 195 C      8.866079    7.092864    1.773216    ( 0.0000,  0.0000,  0.0000)
 196 C      9.752687    7.979471    2.659824    ( 0.0000,  0.0000,  0.0000)
 197 C      7.979471    7.979471    0.886608    ( 0.0000,  0.0000,  0.0000)
 198 C      7.979471    9.752687    2.659824    ( 0.0000,  0.0000,  0.0000)
 199 C      9.752687    9.752687    0.886608    ( 0.0000,  0.0000,  0.0000)
 200 C      7.092864    7.092864    3.546432    ( 0.0000,  0.0000,  0.0000)
 201 C      7.092864    8.866079    5.319648    ( 0.0000,  0.0000,  0.0000)
 202 C      8.866079    8.866079    3.546432    ( 0.0000,  0.0000,  0.0000)
 203 C      8.866079    7.092864    5.319648    ( 0.0000,  0.0000,  0.0000)
 204 C      9.752687    7.979471    6.206256    ( 0.0000,  0.0000,  0.0000)
 205 C      7.979471    7.979471    4.433040    ( 0.0000,  0.0000,  0.0000)
 206 C      7.979471    9.752687    6.206256    ( 0.0000,  0.0000,  0.0000)
 207 C      9.752687    9.752687    4.433040    ( 0.0000,  0.0000,  0.0000)
 208 C      7.092864    8.866079    8.866079    ( 0.0000,  0.0000,  0.0000)
 209 C      8.866079    8.866079    7.092864    ( 0.0000,  0.0000,  0.0000)
 210 C      8.866079    7.092864    8.866079    ( 0.0000,  0.0000,  0.0000)
 211 C      9.752687    7.979471    9.752687    ( 0.0000,  0.0000,  0.0000)
 212 N      7.979471    7.979471    7.979471    ( 0.0000,  0.0000,  2.0000)
 213 C      7.979471    9.752687    9.752687    ( 0.0000,  0.0000,  0.0000)
 214 C      9.752687    9.752687    7.979471    ( 0.0000,  0.0000,  0.0000)

Unit cell:
           periodic     x           y           z      points  spacing
  1. axis:    yes   10.639295    0.000000    0.000000    63     0.1689
  2. axis:    yes    0.000000   10.639295    0.000000    63     0.1689
  3. axis:    yes    0.000000    0.000000   10.639295    63     0.1689

  Lengths:  10.639295  10.639295  10.639295
  Angles:   90.000000  90.000000  90.000000

Effective grid spacing dv^(1/3) = 0.1689

     iter     time        total  log10-change:  magmom
                         energy   eigst   dens
iter:   1 22:04:43 -1797.586936   +1.06  -2.13    +2.0000
iter:   2 22:04:47 -1827.377530   +0.95  -2.14    +2.0000
iter:   3 22:04:50 -1854.032824   +0.81  -2.16    +2.0000
iter:   4 22:04:54 -1876.995760   +0.66  -2.19    +2.0000
iter:   5 22:04:58 -1895.916228   +0.46  -2.21    +2.0000
iter:   6 22:05:02 -1910.673890   +0.22  -2.23    +2.0000
iter:   7 22:05:08 -1921.264388   -0.12  -2.25    +2.0000
iter:   8 22:05:17 -1927.749281   -0.68  -2.27    +2.0000
iter:   9 22:05:21 -1930.248025   -2.32  -2.29    +2.0000
iter:  10 22:05:25 -1930.310572   -2.87  -3.20    +2.0000
iter:  11 22:05:28 -1930.328165c  -3.13  -4.04c   +2.0000
iter:  12 22:05:32 -1930.349542c  -3.90  -3.49    +2.0000
iter:  13 22:05:36 -1930.350439c  -3.71  -3.84    +2.0000
iter:  14 22:05:40 -1930.352583c  -4.29  -4.15c   +2.0000
iter:  15 22:05:43 -1930.353414c  -4.72  -4.44c   +2.0000
iter:  16 22:05:47 -1930.353724c  -4.72  -4.81c   +2.0000
iter:  17 22:05:51 -1930.354162c  -4.97  -4.49c   +2.0000
iter:  18 22:05:55 -1930.354458c  -5.10  -4.85c   +2.0000
iter:  19 22:05:59 -1930.354637c  -5.24  -4.49c   +2.0000
iter:  20 22:06:04 -1930.354684c  -5.31  -5.00c   +2.0000
iter:  21 22:06:08 -1930.354727c  -5.88  -4.68c   +2.0000
iter:  22 22:06:12 -1930.354735c  -6.20  -5.48c   +2.0000
iter:  23 22:06:15 -1930.354746c  -6.48  -5.37c   +2.0000
iter:  24 22:06:19 -1930.354751c  -6.35  -5.59c   +2.0000
iter:  25 22:06:22 -1930.354756c  -6.53  -5.20c   +2.0000
iter:  26 22:06:26 -1930.354758c  -6.85  -5.76c   +2.0000
iter:  27 22:06:30 -1930.354761c  -6.53  -5.78c   +2.0000
iter:  28 22:06:34 -1930.354761c  -6.49  -5.60c   +2.0000
iter:  29 22:06:37 -1930.354763c  -7.13  -5.56c   +2.0000
iter:  30 22:06:41 -1930.354763c  -7.58c -6.31c   +2.0000

Occupied states converged after 31 e/g evaluations
Converge unoccupied states:
                                   wfs    
           time        Energy:     error(ev^2):
iter:   1  22:06:43   33.747018     7.3e+01
iter:   2  22:06:44   33.035085     4.5e+01
iter:   3  22:06:45   32.481186     2.2e+01
iter:   4  22:06:46   32.118499     7.2e+00
iter:   5  22:06:47   31.949548     6.4e-01
iter:   6  22:06:49   31.929678     1.9e-01
iter:   7  22:06:50   31.923024     1.8e-01
iter:   8  22:06:51   31.918748     2.7e-01
iter:   9  22:06:52   31.923066     4.4e-01
iter:  10  22:06:53   31.944134     8.0e-01
iter:  11  22:06:55   31.983898     1.2e+00
iter:  12  22:06:56   31.928500     5.4e-01
iter:  13  22:06:57   31.924604     2.6e-01
iter:  14  22:06:58   31.925173     1.3e+00
iter:  15  22:07:00   31.934089     2.7e+00
iter:  16  22:07:01   31.940348     3.6e+00
iter:  17  22:07:02   31.951983     2.3e+00
iter:  18  22:07:04   31.931490     1.0e+00
iter:  19  22:07:05   31.923825     2.1e-01
iter:  20  22:07:06   31.925068     6.9e-01
iter:  21  22:07:07   31.933090     1.7e+00
iter:  22  22:07:09   31.944401     2.5e+00
iter:  23  22:07:10   31.958583     3.3e+00
iter:  24  22:07:11   31.975084     4.1e+00
iter:  25  22:07:12   31.992491     4.5e+00
iter:  26  22:07:13   32.009752     4.9e+00
iter:  27  22:07:15   32.026338     5.1e+00
iter:  28  22:07:16   32.040295     5.0e+00
iter:  29  22:07:17   32.047834     4.8e+00
iter:  30  22:07:18   32.031539     3.7e+00
iter:  31  22:07:19   31.985272     1.4e+01
iter:  32  22:07:21   31.991418     2.2e+01
iter:  33  22:07:22   32.004008     2.8e+01
iter:  34  22:07:23   32.021429     3.1e+01
iter:  35  22:07:24   32.050105     3.5e+01
iter:  36  22:07:26   32.082682     3.7e+01
iter:  37  22:07:27   32.110658     3.8e+01
iter:  38  22:07:28   32.137511     3.2e+01
iter:  39  22:07:29   32.145369     2.5e+01
iter:  40  22:07:30   32.076656     2.3e+01
iter:  41  22:07:31   31.987976     3.4e+00
iter:  42  22:07:33   31.925100     9.0e-01
iter:  43  22:07:34   31.919802     1.8e-01
iter:  44  22:07:35   31.920650     1.8e+00
iter:  45  22:07:36   31.932497     7.4e+00
iter:  46  22:07:38   31.941753     1.1e+01
iter:  47  22:07:39   31.946821     9.7e+00
iter:  48  22:07:40   31.944819     6.8e+00
iter:  49  22:07:41   31.932073     8.8e-01
iter:  50  22:07:42   31.937752     1.8e+00
iter:  51  22:07:44   31.942849     2.8e+00
iter:  52  22:07:45   31.946486     3.5e+00
iter:  53  22:07:46   31.946738     3.0e+00
iter:  54  22:07:47   31.933949     8.9e-01
iter:  55  22:07:48   31.930920     4.6e-01
iter:  56  22:07:49   31.930349     2.0e-01
iter:  57  22:07:51   31.930275     6.3e-02
iter:  58  22:07:52   31.931089     6.3e-02
iter:  59  22:07:53   31.932544     8.8e-02
iter:  60  22:07:54   31.936486     2.3e+00
iter:  61  22:07:55   31.940234     3.1e+00
iter:  62  22:07:57   31.945315     4.0e+00
iter:  63  22:07:58   31.942380     2.9e-01
iter:  64  22:08:00   31.948136     1.6e+00
iter:  65  22:08:01   31.952547     3.1e+00
iter:  66  22:08:02   31.951906     1.6e+00
iter:  67  22:08:03   31.944258     5.1e-01
iter:  68  22:08:05   31.948336     5.0e+00
iter:  69  22:08:06   31.946175     3.4e+00
iter:  70  22:08:07   31.943067     1.4e+00
iter:  71  22:08:08   31.935879     8.0e-02
iter:  72  22:08:10   31.939712     1.5e+00
iter:  73  22:08:11   31.938448     1.1e+00
iter:  74  22:08:12   31.938709     1.3e+00
iter:  75  22:08:13   31.938387     1.2e+00
iter:  76  22:08:15   31.936843     1.2e-01
iter:  77  22:08:16   31.936560     7.1e-02
iter:  78  22:08:17   31.934830     7.2e-02
iter:  79  22:08:18   31.934660     1.1e-01
iter:  80  22:08:19   31.934748     1.5e-01
iter:  81  22:08:20   31.935248     6.2e-02
iter:  82  22:08:22   31.935044     3.6e-02
iter:  83  22:08:23   31.934757     5.9e-02
iter:  84  22:08:24   31.934710     5.8e-02
iter:  85  22:08:25   31.934779     3.6e-02
iter:  86  22:08:27   31.935067     3.1e-02
iter:  87  22:08:28   31.935613     3.8e-02
iter:  88  22:08:29   31.936146     7.1e-02
iter:  89  22:08:30   31.936605     1.1e-01
iter:  90  22:08:32   31.936953     1.6e-01
iter:  91  22:08:33   31.936007     6.0e-02
iter:  92  22:08:34   31.936024     3.5e-02
iter:  93  22:08:35   31.935820     1.4e-02
iter:  94  22:08:37   31.935510     4.9e-02
iter:  95  22:08:38   31.935502     7.7e-02
iter:  96  22:08:39   31.935615     8.7e-02
iter:  97  22:08:40   31.935704     4.6e-02
iter:  98  22:08:42   31.937461     5.7e-02
iter:  99  22:08:43   31.937132     6.3e-02
iter: 100  22:08:44   31.936048     7.4e-02
iter: 101  22:08:45   31.935673     2.7e-02
iter: 102  22:08:46   31.935233     5.3e-02
iter: 103  22:08:48   31.935111     2.7e-02
iter: 104  22:08:49   31.935108     3.6e-03
iter: 105  22:08:50   31.935118     6.8e-03
iter: 106  22:08:51   31.935168     3.3e-02
iter: 107  22:08:52   31.935132     2.6e-02
iter: 108  22:08:53   31.935020     3.6e-03
iter: 109  22:08:55   31.934946     1.1e-02
iter: 110  22:08:56   31.934937     1.8e-02
iter: 111  22:08:57   31.935015     2.6e-02
iter: 112  22:08:58   31.935057     2.0e-02
iter: 113  22:09:00   31.934911     4.6e-03
iter: 114  22:09:01   31.934884     1.3e-03
iter: 115  22:09:02   31.934858     9.8e-04
iter: 116  22:09:04   31.934801     9.2e-04
iter: 117  22:09:05   31.934804     1.0e-03
iter: 118  22:09:06   31.934877     3.8e-03
iter: 119  22:09:07   31.934815     8.3e-04
iter: 120  22:09:09   31.934803     3.4e-04

Unoccupied orbitals converged after 120 iterations

Converged after 30 iterations.

Dipole moment: (-0.241091, -0.241091, -0.241091) |e|*Ang

Total magnetic moment: (0.000000, 0.000000, 2.000000)
Local magnetic moments:
   0 C  ( 0.000000,  0.000000,  0.000013)
   1 C  ( 0.000000,  0.000000,  0.000044)
   2 C  ( 0.000000,  0.000000,  0.000044)
   3 C  ( 0.000000,  0.000000,  0.000044)
   4 C  ( 0.000000,  0.000000,  0.000357)
   5 C  ( 0.000000,  0.000000,  0.000113)
   6 C  ( 0.000000,  0.000000,  0.000357)
   7 C  ( 0.000000,  0.000000,  0.000357)
   8 C  ( 0.000000,  0.000000,  0.000159)
   9 C  ( 0.000000,  0.000000, -0.000035)
  10 C  ( 0.000000,  0.000000,  0.000011)
  11 C  ( 0.000000,  0.000000, -0.000035)
  12 C  ( 0.000000,  0.000000,  0.001303)
  13 C  ( 0.000000,  0.000000,  0.000129)
  14 C  ( 0.000000,  0.000000,  0.001303)
  15 C  ( 0.000000,  0.000000,  0.000096)
  16 C  ( 0.000000,  0.000000,  0.000261)
  17 C  ( 0.000000,  0.000000, -0.000009)
  18 C  ( 0.000000,  0.000000,  0.001007)
  19 C  ( 0.000000,  0.000000, -0.000009)
  20 C  ( 0.000000,  0.000000,  0.000069)
  21 C  ( 0.000000,  0.000000,  0.000156)
  22 C  ( 0.000000,  0.000000,  0.000069)
  23 C  ( 0.000000,  0.000000,  0.000845)
  24 C  ( 0.000000,  0.000000,  0.000159)
  25 C  ( 0.000000,  0.000000, -0.000035)
  26 C  ( 0.000000,  0.000000, -0.000035)
  27 C  ( 0.000000,  0.000000,  0.000011)
  28 C  ( 0.000000,  0.000000,  0.000096)
  29 C  ( 0.000000,  0.000000,  0.000129)
  30 C  ( 0.000000,  0.000000,  0.001303)
  31 C  ( 0.000000,  0.000000,  0.001303)
  32 C  ( 0.000000,  0.000000, -0.000016)
  33 C  ( 0.000000,  0.000000, -0.000631)
  34 C  ( 0.000000,  0.000000, -0.000066)
  35 C  ( 0.000000,  0.000000, -0.000066)
  36 C  ( 0.000000,  0.000000,  0.000088)
  37 C  ( 0.000000,  0.000000,  0.000689)
  38 C  ( 0.000000,  0.000000,  0.000523)
  39 C  ( 0.000000,  0.000000,  0.000088)
  40 C  ( 0.000000,  0.000000,  0.002547)
  41 C  ( 0.000000,  0.000000,  0.000030)
  42 C  ( 0.000000,  0.000000, -0.000055)
  43 C  ( 0.000000,  0.000000, -0.000033)
  44 C  ( 0.000000,  0.000000,  0.000807)
  45 C  ( 0.000000,  0.000000,  0.000098)
  46 C  ( 0.000000,  0.000000,  0.000112)
  47 C  ( 0.000000,  0.000000,  0.001017)
  48 C  ( 0.000000,  0.000000,  0.000261)
  49 C  ( 0.000000,  0.000000, -0.000009)
  50 C  ( 0.000000,  0.000000, -0.000009)
  51 C  ( 0.000000,  0.000000,  0.001007)
  52 C  ( 0.000000,  0.000000,  0.000845)
  53 C  ( 0.000000,  0.000000,  0.000156)
  54 C  ( 0.000000,  0.000000,  0.000069)
  55 C  ( 0.000000,  0.000000,  0.000069)
  56 C  ( 0.000000,  0.000000,  0.002547)
  57 C  ( 0.000000,  0.000000,  0.000030)
  58 C  ( 0.000000,  0.000000, -0.000033)
  59 C  ( 0.000000,  0.000000, -0.000055)
  60 C  ( 0.000000,  0.000000,  0.001017)
  61 C  ( 0.000000,  0.000000,  0.000098)
  62 C  ( 0.000000,  0.000000,  0.000112)
  63 C  ( 0.000000,  0.000000,  0.000807)
  64 C  ( 0.000000,  0.000000, -0.000350)
  65 C  ( 0.000000,  0.000000, -0.000040)
  66 C  ( 0.000000,  0.000000, -0.000067)
  67 C  ( 0.000000,  0.000000, -0.000067)
  68 C  ( 0.000000,  0.000000,  0.000037)
  69 C  ( 0.000000,  0.000000,  0.000579)
  70 C  ( 0.000000,  0.000000,  0.000009)
  71 C  ( 0.000000,  0.000000,  0.000037)
  72 C  ( 0.000000,  0.000000,  0.000159)
  73 C  ( 0.000000,  0.000000,  0.000011)
  74 C  ( 0.000000,  0.000000, -0.000035)
  75 C  ( 0.000000,  0.000000, -0.000035)
  76 C  ( 0.000000,  0.000000,  0.001303)
  77 C  ( 0.000000,  0.000000,  0.000129)
  78 C  ( 0.000000,  0.000000,  0.000096)
  79 C  ( 0.000000,  0.000000,  0.001303)
  80 C  ( 0.000000,  0.000000, -0.000016)
  81 C  ( 0.000000,  0.000000, -0.000066)
  82 C  ( 0.000000,  0.000000, -0.000066)
  83 C  ( 0.000000,  0.000000, -0.000631)
  84 C  ( 0.000000,  0.000000,  0.000523)
  85 C  ( 0.000000,  0.000000,  0.000689)
  86 C  ( 0.000000,  0.000000,  0.000088)
  87 C  ( 0.000000,  0.000000,  0.000088)
  88 C  ( 0.000000,  0.000000,  0.002547)
  89 C  ( 0.000000,  0.000000, -0.000033)
  90 C  ( 0.000000,  0.000000, -0.000055)
  91 C  ( 0.000000,  0.000000,  0.000030)
  92 C  ( 0.000000,  0.000000,  0.000112)
  93 C  ( 0.000000,  0.000000,  0.000098)
  94 C  ( 0.000000,  0.000000,  0.000807)
  95 C  ( 0.000000,  0.000000,  0.001017)
  96 C  ( 0.000000,  0.000000, -0.000016)
  97 C  ( 0.000000,  0.000000, -0.000066)
  98 C  ( 0.000000,  0.000000, -0.000631)
  99 C  ( 0.000000,  0.000000, -0.000066)
 100 C  ( 0.000000,  0.000000,  0.000088)
 101 C  ( 0.000000,  0.000000,  0.000689)
 102 C  ( 0.000000,  0.000000,  0.000088)
 103 C  ( 0.000000,  0.000000,  0.000523)
 104 C  ( 0.000000,  0.000000, -0.000052)
 105 C  ( 0.000000,  0.000000, -0.000307)
 106 C  ( 0.000000,  0.000000, -0.000307)
 107 C  ( 0.000000,  0.000000, -0.000307)
 108 C  ( 0.000000,  0.000000,  0.004573)
 109 C  ( 0.000000,  0.000000,  0.000138)
 110 C  ( 0.000000,  0.000000,  0.004573)
 111 C  ( 0.000000,  0.000000,  0.004573)
 112 C  ( 0.000000,  0.000000,  0.001120)
 113 C  ( 0.000000,  0.000000, -0.000698)
 114 C  ( 0.000000,  0.000000, -0.006133)
 115 C  ( 0.000000,  0.000000, -0.000698)
 116 C  ( 0.000000,  0.000000,  0.012711)
 117 C  ( 0.000000,  0.000000,  0.011385)
 118 C  ( 0.000000,  0.000000,  0.012711)
 119 C  ( 0.000000,  0.000000,  0.221407)
 120 C  ( 0.000000,  0.000000,  0.002547)
 121 C  ( 0.000000,  0.000000, -0.000033)
 122 C  ( 0.000000,  0.000000,  0.000030)
 123 C  ( 0.000000,  0.000000, -0.000055)
 124 C  ( 0.000000,  0.000000,  0.001017)
 125 C  ( 0.000000,  0.000000,  0.000098)
 126 C  ( 0.000000,  0.000000,  0.000807)
 127 C  ( 0.000000,  0.000000,  0.000112)
 128 C  ( 0.000000,  0.000000,  0.001120)
 129 C  ( 0.000000,  0.000000, -0.000698)
 130 C  ( 0.000000,  0.000000, -0.000698)
 131 C  ( 0.000000,  0.000000, -0.006133)
 132 C  ( 0.000000,  0.000000,  0.221407)
 133 C  ( 0.000000,  0.000000,  0.011385)
 134 C  ( 0.000000,  0.000000,  0.012711)
 135 C  ( 0.000000,  0.000000,  0.012711)
 136 C  ( 0.000000,  0.000000, -0.000599)
 137 C  ( 0.000000,  0.000000, -0.000494)
 138 C  ( 0.000000,  0.000000,  0.000975)
 139 C  ( 0.000000,  0.000000,  0.000975)
 140 C  ( 0.000000,  0.000000,  0.002420)
 141 C  ( 0.000000,  0.000000,  0.003667)
 142 C  ( 0.000000,  0.000000,  0.000211)
 143 C  ( 0.000000,  0.000000,  0.002420)
 144 C  ( 0.000000,  0.000000,  0.000261)
 145 C  ( 0.000000,  0.000000,  0.001007)
 146 C  ( 0.000000,  0.000000, -0.000009)
 147 C  ( 0.000000,  0.000000, -0.000009)
 148 C  ( 0.000000,  0.000000,  0.000069)
 149 C  ( 0.000000,  0.000000,  0.000156)
 150 C  ( 0.000000,  0.000000,  0.000845)
 151 C  ( 0.000000,  0.000000,  0.000069)
 152 C  ( 0.000000,  0.000000,  0.002547)
 153 C  ( 0.000000,  0.000000, -0.000055)
 154 C  ( 0.000000,  0.000000, -0.000033)
 155 C  ( 0.000000,  0.000000,  0.000030)
 156 C  ( 0.000000,  0.000000,  0.000112)
 157 C  ( 0.000000,  0.000000,  0.000098)
 158 C  ( 0.000000,  0.000000,  0.001017)
 159 C  ( 0.000000,  0.000000,  0.000807)
 160 C  ( 0.000000,  0.000000, -0.000350)
 161 C  ( 0.000000,  0.000000, -0.000067)
 162 C  ( 0.000000,  0.000000, -0.000067)
 163 C  ( 0.000000,  0.000000, -0.000040)
 164 C  ( 0.000000,  0.000000,  0.000009)
 165 C  ( 0.000000,  0.000000,  0.000579)
 166 C  ( 0.000000,  0.000000,  0.000037)
 167 C  ( 0.000000,  0.000000,  0.000037)
 168 C  ( 0.000000,  0.000000,  0.002547)
 169 C  ( 0.000000,  0.000000, -0.000055)
 170 C  ( 0.000000,  0.000000,  0.000030)
 171 C  ( 0.000000,  0.000000, -0.000033)
 172 C  ( 0.000000,  0.000000,  0.000807)
 173 C  ( 0.000000,  0.000000,  0.000098)
 174 C  ( 0.000000,  0.000000,  0.001017)
 175 C  ( 0.000000,  0.000000,  0.000112)
 176 C  ( 0.000000,  0.000000,  0.001120)
 177 C  ( 0.000000,  0.000000, -0.006133)
 178 C  ( 0.000000,  0.000000, -0.000698)
 179 C  ( 0.000000,  0.000000, -0.000698)
 180 C  ( 0.000000,  0.000000,  0.012711)
 181 C  ( 0.000000,  0.000000,  0.011385)
 182 C  ( 0.000000,  0.000000,  0.221407)
 183 C  ( 0.000000,  0.000000,  0.012711)
 184 C  ( 0.000000,  0.000000, -0.000599)
 185 C  ( 0.000000,  0.000000,  0.000975)
 186 C  ( 0.000000,  0.000000,  0.000975)
 187 C  ( 0.000000,  0.000000, -0.000494)
 188 C  ( 0.000000,  0.000000,  0.000211)
 189 C  ( 0.000000,  0.000000,  0.003667)
 190 C  ( 0.000000,  0.000000,  0.002420)
 191 C  ( 0.000000,  0.000000,  0.002420)
 192 C  ( 0.000000,  0.000000, -0.000350)
 193 C  ( 0.000000,  0.000000, -0.000067)
 194 C  ( 0.000000,  0.000000, -0.000040)
 195 C  ( 0.000000,  0.000000, -0.000067)
 196 C  ( 0.000000,  0.000000,  0.000037)
 197 C  ( 0.000000,  0.000000,  0.000579)
 198 C  ( 0.000000,  0.000000,  0.000037)
 199 C  ( 0.000000,  0.000000,  0.000009)
 200 C  ( 0.000000,  0.000000, -0.000599)
 201 C  ( 0.000000,  0.000000,  0.000975)
 202 C  ( 0.000000,  0.000000, -0.000494)
 203 C  ( 0.000000,  0.000000,  0.000975)
 204 C  ( 0.000000,  0.000000,  0.002420)
 205 C  ( 0.000000,  0.000000,  0.003667)
 206 C  ( 0.000000,  0.000000,  0.002420)
 207 C  ( 0.000000,  0.000000,  0.000211)
 208 C  ( 0.000000,  0.000000,  0.002602)
 209 C  ( 0.000000,  0.000000,  0.002602)
 210 C  ( 0.000000,  0.000000,  0.002602)
 211 C  ( 0.000000,  0.000000,  0.000161)
 212 N  ( 0.000000,  0.000000, -0.001442)
 213 C  ( 0.000000,  0.000000,  0.000161)
 214 C  ( 0.000000,  0.000000,  0.000161)

Energy contributions relative to reference atoms: (reference = -221394.138216)

Kinetic:       +1994.569355
Potential:     -1818.034000
External:        +0.000000
XC:            -2110.642845
Entropy (-ST):   +0.000000
Local:           +3.752726
SIC:             +0.000000
--------------------------
Free energy:   -1930.354763
Extrapolated:  -1930.354763

Spin contamination: 0.093831 electrons
                   Up                     Down
 Band  Eigenvalues  Occupancy  Eigenvalues  Occupancy
    0     -9.47818    1.00000     -9.47400    1.00000
    1     -8.50959    1.00000     -8.50703    1.00000
    2     -8.47361    1.00000     -8.47129    1.00000
    3     -8.47361    1.00000     -8.47129    1.00000
    4     -8.43745    1.00000     -8.43215    1.00000
    5     -8.43745    1.00000     -8.43215    1.00000
    6     -8.31297    1.00000     -8.30268    1.00000
    7     -7.58693    1.00000     -7.58271    1.00000
    8     -7.45815    1.00000     -7.45621    1.00000
    9     -7.45815    1.00000     -7.45621    1.00000
   10     -7.45145    1.00000     -7.44758    1.00000
   11     -7.44764    1.00000     -7.44576    1.00000
   12     -7.44764    1.00000     -7.44576    1.00000
   13     -7.42181    1.00000     -7.41792    1.00000
   14     -7.42181    1.00000     -7.41792    1.00000
   15     -7.39967    1.00000     -7.39684    1.00000
   16     -7.33947    1.00000     -7.32596    1.00000
   17     -7.33947    1.00000     -7.32596    1.00000
   18     -7.12621    1.00000     -7.10626    1.00000
   19     -6.56100    1.00000     -6.55720    1.00000
   20     -6.42936    1.00000     -6.42613    1.00000
   21     -6.41211    1.00000     -6.40613    1.00000
   22     -6.41211    1.00000     -6.40613    1.00000
   23     -6.38436    1.00000     -6.37870    1.00000
   24     -6.36426    1.00000     -6.35316    1.00000
   25     -6.36426    1.00000     -6.35316    1.00000
   26     -6.18474    1.00000     -6.16126    1.00000
   27     -5.50918    1.00000     -5.50330    1.00000
   28     -5.40585    1.00000     -5.40081    1.00000
   29     -5.40585    1.00000     -5.40081    1.00000
   30     -5.38642    1.00000     -5.37931    1.00000
   31     -5.38642    1.00000     -5.37931    1.00000
   32     -5.32457    1.00000     -5.31659    1.00000
   33     -4.83205    1.00000     -4.81963    1.00000
   34     -4.50502    1.00000     -4.50445    1.00000
   35     -4.49669    1.00000     -4.49497    1.00000
   36     -4.49669    1.00000     -4.49497    1.00000
   37     -4.49492    1.00000     -4.49161    1.00000
   38     -4.48863    1.00000     -4.48547    1.00000
   39     -4.48863    1.00000     -4.48547    1.00000
   40     -4.48207    1.00000     -4.48020    1.00000
   41     -4.48207    1.00000     -4.48020    1.00000
   42     -4.47926    1.00000     -4.47781    1.00000
   43     -4.46696    1.00000     -4.46578    1.00000
   44     -4.46532    1.00000     -4.46318    1.00000
   45     -4.46532    1.00000     -4.46318    1.00000
   46     -4.45867    1.00000     -4.45423    1.00000
   47     -4.45867    1.00000     -4.45423    1.00000
   48     -4.43577    1.00000     -4.42535    1.00000
   49     -4.42123    1.00000     -4.41540    1.00000
   50     -4.42123    1.00000     -4.41540    1.00000
   51     -4.39129    1.00000     -4.38772    1.00000
   52     -4.39129    1.00000     -4.38393    1.00000
   53     -4.39022    1.00000     -4.38393    1.00000
   54     -4.29536    1.00000     -4.27386    1.00000
   55     -4.29536    1.00000     -4.27386    1.00000
   56     -4.14084    1.00000     -4.12806    1.00000
   57     -3.88909    1.00000     -3.88458    1.00000
   58     -3.68619    1.00000     -3.68480    1.00000
   59     -3.68619    1.00000     -3.68480    1.00000
   60     -3.67968    1.00000     -3.67827    1.00000
   61     -3.67847    1.00000     -3.67585    1.00000
   62     -3.67760    1.00000     -3.67364    1.00000
   63     -3.67760    1.00000     -3.67364    1.00000
   64     -3.66582    1.00000     -3.66391    1.00000
   65     -3.66582    1.00000     -3.66391    1.00000
   66     -3.65842    1.00000     -3.65272    1.00000
   67     -3.63655    1.00000     -3.63205    1.00000
   68     -3.63655    1.00000     -3.63205    1.00000
   69     -3.62373    1.00000     -3.61843    1.00000
   70     -3.62373    1.00000     -3.61843    1.00000
   71     -3.62013    1.00000     -3.61426    1.00000
   72     -3.61412    1.00000     -3.60930    1.00000
   73     -3.61412    1.00000     -3.60930    1.00000
   74     -3.60155    1.00000     -3.59105    1.00000
   75     -3.56258    1.00000     -3.55248    1.00000
   76     -3.56258    1.00000     -3.55248    1.00000
   77     -3.50754    1.00000     -3.49943    1.00000
   78     -3.32460    1.00000     -3.26381    1.00000
   79     -3.32460    1.00000     -3.26381    1.00000
   80     -2.70241    1.00000     -2.64380    1.00000
   81     -2.10260    1.00000     -2.09501    1.00000
   82     -1.95608    1.00000     -1.95259    1.00000
   83     -1.95608    1.00000     -1.95259    1.00000
   84     -1.94101    1.00000     -1.93297    1.00000
   85     -1.94101    1.00000     -1.93297    1.00000
   86     -1.93338    1.00000     -1.92973    1.00000
   87     -1.91506    1.00000     -1.90957    1.00000
   88     -1.91263    1.00000     -1.90811    1.00000
   89     -1.91263    1.00000     -1.90811    1.00000
   90     -1.83301    1.00000     -1.80236    1.00000
   91     -1.83301    1.00000     -1.80236    1.00000
   92     -1.47194    1.00000     -1.41201    1.00000
   93     -0.70968    1.00000     -0.69925    1.00000
   94     -0.65620    1.00000     -0.65318    1.00000
   95     -0.65620    1.00000     -0.65318    1.00000
   96     -0.64671    1.00000     -0.64041    1.00000
   97     -0.64671    1.00000     -0.64041    1.00000
   98     -0.61623    1.00000     -0.61049    1.00000
   99     -0.34605    1.00000     -0.32588    1.00000
  100     -0.15602    1.00000     -0.15579    1.00000
  101     -0.15147    1.00000     -0.15047    1.00000
  102     -0.15147    1.00000     -0.15047    1.00000
  103     -0.14133    1.00000     -0.13944    1.00000
  104     -0.14133    1.00000     -0.13944    1.00000
  105     -0.13685    1.00000     -0.13521    1.00000
  106     -0.12840    1.00000     -0.12714    1.00000
  107     -0.12461    1.00000     -0.12151    1.00000
  108     -0.12461    1.00000     -0.12151    1.00000
  109     -0.11339    1.00000     -0.11031    1.00000
  110     -0.11339    1.00000     -0.11031    1.00000
  111     -0.08672    1.00000     -0.08112    1.00000
  112     -0.08390    1.00000     -0.08017    1.00000
  113     -0.08390    1.00000     -0.08017    1.00000
  114     -0.07401    1.00000     -0.06499    1.00000
  115     -0.04786    1.00000     -0.04285    1.00000
  116     -0.04786    1.00000     -0.04285    1.00000
  117     -0.03205    1.00000     -0.02690    1.00000
  118     -0.00253    1.00000      0.00239    1.00000
  119     -0.00253    1.00000      0.00239    1.00000
  120      0.00343    1.00000      0.00598    1.00000
  121      0.00808    1.00000      0.01165    1.00000
  122      0.00808    1.00000      0.01165    1.00000
  123      0.01715    1.00000      0.02000    1.00000
  124      0.01715    1.00000      0.02000    1.00000
  125      0.02701    1.00000      0.02889    1.00000
  126      0.02807    1.00000      0.03072    1.00000
  127      0.02931    1.00000      0.03182    1.00000
  128      0.03187    1.00000      0.03754    1.00000
  129      0.03187    1.00000      0.03754    1.00000
  130      0.05618    1.00000      0.05904    1.00000
  131      0.05618    1.00000      0.05904    1.00000
  132      0.06051    1.00000      0.06622    1.00000
  133      0.06548    1.00000      0.07205    1.00000
  134      0.06548    1.00000      0.07205    1.00000
  135      0.08573    1.00000      0.09037    1.00000
  136      0.08573    1.00000      0.09037    1.00000
  137      0.10718    1.00000      0.11529    1.00000
  138      0.10718    1.00000      0.11529    1.00000
  139      0.11058    1.00000      0.11881    1.00000
  140      0.16590    1.00000      0.19641    1.00000
  141      0.16590    1.00000      0.19641    1.00000
  142      0.18452    1.00000      0.22105    1.00000
  143      0.36214    1.00000      0.37811    1.00000
  144      0.48200    1.00000      0.53980    1.00000
  145      0.48200    1.00000      0.53980    1.00000
  146      0.87703    1.00000      0.90205    1.00000
  147      1.15341    1.00000      1.17200    1.00000
  148      1.18692    1.00000      1.18992    1.00000
  149      1.18692    1.00000      1.18992    1.00000
  150      1.20923    1.00000      1.21289    1.00000
  151      1.20923    1.00000      1.21413    1.00000
  152      1.21051    1.00000      1.21413    1.00000
  153      1.22403    1.00000      1.23409    1.00000
  154      1.23453    1.00000      1.24050    1.00000
  155      1.23453    1.00000      1.24050    1.00000
  156      1.37631    1.00000      1.44140    1.00000
  157      1.37631    1.00000      1.44140    1.00000
  158      2.21716    1.00000      2.29578    1.00000
  159      2.66369    1.00000      2.66731    1.00000
  160      2.67455    1.00000      2.67730    1.00000
  161      2.67455    1.00000      2.67730    1.00000
  162      2.69326    1.00000      2.69585    1.00000
  163      2.69527    1.00000      2.69867    1.00000
  164      2.69527    1.00000      2.69867    1.00000
  165      2.70476    1.00000      2.70686    1.00000
  166      2.71826    1.00000      2.72337    1.00000
  167      2.71826    1.00000      2.72337    1.00000
  168      2.72291    1.00000      2.72595    1.00000
  169      2.73570    1.00000      2.74074    1.00000
  170      2.73570    1.00000      2.74074    1.00000
  171      2.74850    1.00000      2.75696    1.00000
  172      2.77428    1.00000      2.78685    1.00000
  173      2.78411    1.00000      2.79457    1.00000
  174      2.78411    1.00000      2.79457    1.00000
  175      2.89107    1.00000      2.90553    1.00000
  176      2.89107    1.00000      2.90553    1.00000
  177      2.90140    1.00000      2.91268    1.00000
  178      2.93578    1.00000      2.95888    1.00000
  179      3.39635    1.00000      3.41979    1.00000
  180      3.42510    1.00000      3.42719    1.00000
  181      3.42510    1.00000      3.43010    1.00000
  182      3.42670    1.00000      3.43010    1.00000
  183      3.43842    1.00000      3.44030    1.00000
  184      3.43842    1.00000      3.44030    1.00000
  185      3.44467    1.00000      3.44755    1.00000
  186      3.45100    1.00000      3.45393    1.00000
  187      3.45110    1.00000      3.45565    1.00000
  188      3.45110    1.00000      3.45565    1.00000
  189      3.46823    1.00000      3.47093    1.00000
  190      3.46823    1.00000      3.47093    1.00000
  191      3.47764    1.00000      3.48380    1.00000
  192      3.47988    1.00000      3.48380    1.00000
  193      3.47988    1.00000      3.48866    1.00000
  194      3.50582    1.00000      3.51330    1.00000
  195      3.50582    1.00000      3.51330    1.00000
  196      3.52786    1.00000      3.53722    1.00000
  197      3.53471    1.00000      3.54434    1.00000
  198      3.53562    1.00000      3.54644    1.00000
  199      3.53562    1.00000      3.54644    1.00000
  200      3.71117    1.00000      3.76979    1.00000
  201      3.71117    1.00000      3.76979    1.00000
  202      4.20406    1.00000      4.21390    1.00000
  203      4.22614    1.00000      4.22695    1.00000
  204      4.22614    1.00000      4.22695    1.00000
  205      4.23397    1.00000      4.23506    1.00000
  206      4.23807    1.00000      4.24092    1.00000
  207      4.23944    1.00000      4.24173    1.00000
  208      4.23944    1.00000      4.24173    1.00000
  209      4.25046    1.00000      4.25265    1.00000
  210      4.25793    1.00000      4.26249    1.00000
  211      4.25793    1.00000      4.26249    1.00000
  212      4.26581    1.00000      4.26902    1.00000
  213      4.26581    1.00000      4.26902    1.00000
  214      4.28921    1.00000      4.29435    1.00000
  215      4.28921    1.00000      4.29435    1.00000
  216      4.31655    1.00000      4.32034    1.00000
  217      4.33619    1.00000      4.34110    1.00000
  218      4.33619    1.00000      4.34110    1.00000
  219      4.35656    1.00000      4.36253    1.00000
  220      4.37698    1.00000      4.38826    1.00000
  221      4.39196    1.00000      4.40408    1.00000
  222      4.39196    1.00000      4.40408    1.00000
  223      4.46151    1.00000      4.46514    1.00000
  224      4.46151    1.00000      4.47221    1.00000
  225      4.46197    1.00000      4.47221    1.00000
  226      4.55619    1.00000      4.59899    1.00000
  227      4.75068    1.00000      4.75436    1.00000
  228      4.75068    1.00000      4.75436    1.00000
  229      4.78216    1.00000      4.78631    1.00000
  230      4.78746    1.00000      4.79011    1.00000
  231      4.78802    1.00000      4.79011    1.00000
  232      4.78802    1.00000      4.79400    1.00000
  233      4.79576    1.00000      4.79818    1.00000
  234      4.79576    1.00000      4.79818    1.00000
  235      4.79971    1.00000      4.80384    1.00000
  236      4.81837    1.00000      4.82590    1.00000
  237      4.81837    1.00000      4.82590    1.00000
  238      4.82713    1.00000      4.83001    1.00000
  239      4.82713    1.00000      4.83001    1.00000
  240      4.83695    1.00000      4.84541    1.00000
  241      4.84593    1.00000      4.85058    1.00000
  242      4.84762    1.00000      4.85465    1.00000
  243      4.88141    1.00000      4.89407    1.00000
  244      4.88141    1.00000      4.89407    1.00000
  245      4.89968    1.00000      4.91246    1.00000
  246      4.89968    1.00000      4.91246    1.00000
  247      4.90387    1.00000      4.91752    1.00000
  248      4.99670    1.00000      5.01584    1.00000
  249      5.00360    1.00000      5.01584    1.00000
  250      5.00360    1.00000      5.01723    1.00000
  251      5.04893    1.00000      5.06603    1.00000
  252      5.04893    1.00000      5.06603    1.00000
  253      5.26046    1.00000      5.28288    1.00000
  254      5.28444    1.00000      5.32819    1.00000
  255      5.28444    1.00000      5.32819    1.00000
  256      5.84108    1.00000      5.84696    1.00000
  257      5.84108    1.00000      5.84696    1.00000
  258      5.86223    1.00000      5.87038    1.00000
  259      5.90917    1.00000      5.92351    1.00000
  260      5.92214    1.00000      5.93982    1.00000
  261      5.92214    1.00000      5.93982    1.00000
  262      5.96186    1.00000      6.04761    1.00000
  263      6.44928    1.00000      6.45481    1.00000
  264      6.44928    1.00000      6.45481    1.00000
  265      6.47243    1.00000      6.47471    1.00000
  266      6.47243    1.00000      6.47471    1.00000
  267      6.47736    1.00000      6.48134    1.00000
  268      6.49492    1.00000      6.50369    1.00000
  269      6.49937    1.00000      6.50723    1.00000
  270      6.49937    1.00000      6.50723    1.00000
  271      6.53516    1.00000      6.54688    1.00000
  272      6.56622    1.00000      6.58059    1.00000
  273      6.56622    1.00000      6.58059    1.00000
  274      6.78846    1.00000      6.79356    1.00000
  275      6.78846    1.00000      6.79356    1.00000
  276      6.83565    1.00000      6.83887    1.00000
  277      6.83916    1.00000      6.84210    1.00000
  278      6.83924    1.00000      6.84210    1.00000
  279      6.83924    1.00000      6.84768    1.00000
  280      6.87467    1.00000      6.88370    1.00000
  281      6.87467    1.00000      6.88370    1.00000
  282      6.87865    1.00000      6.88873    1.00000
  283      6.88024    1.00000      6.91066    1.00000
  284      6.91673    1.00000      6.92591    1.00000
  285      6.91673    1.00000      6.92591    1.00000
  286      6.93421    1.00000      6.94606    1.00000
  287      7.11296    1.00000      7.11488    1.00000
  288      7.12335    1.00000      7.12514    1.00000
  289      7.12335    1.00000      7.12514    1.00000
  290      7.12668    1.00000      7.12925    1.00000
  291      7.13105    1.00000      7.13481    1.00000
  292      7.13105    1.00000      7.13481    1.00000
  293      7.13712    1.00000      7.13936    1.00000
  294      7.14326    1.00000      7.14455    1.00000
  295      7.14326    1.00000      7.14455    1.00000
  296      7.14805    1.00000      7.14971    1.00000
  297      7.15340    1.00000      7.15553    1.00000
  298      7.15340    1.00000      7.15553    1.00000
  299      7.16446    1.00000      7.16951    1.00000
  300      7.16570    1.00000      7.17085    1.00000
  301      7.16570    1.00000      7.17085    1.00000
  302      7.20037    1.00000      7.20360    1.00000
  303      7.20037    1.00000      7.20360    1.00000
  304      7.20376    1.00000      7.20842    1.00000
  305      7.20814    1.00000      7.21227    1.00000
  306      7.20814    1.00000      7.21227    1.00000
  307      7.21693    1.00000      7.22543    1.00000
  308      7.21693    1.00000      7.22915    1.00000
  309      7.22173    1.00000      7.22915    1.00000
  310      7.27463    1.00000      7.27878    1.00000
  311      7.27463    1.00000      7.27878    1.00000
  312      7.28034    1.00000      7.28861    1.00000
  313      7.31136    1.00000      7.31262    1.00000
  314      7.31677    1.00000      7.31856    1.00000
  315      7.31677    1.00000      7.31856    1.00000
  316      7.32123    1.00000      7.32315    1.00000
  317      7.32812    1.00000      7.32997    1.00000
  318      7.32812    1.00000      7.32997    1.00000
  319      7.32883    1.00000      7.33186    1.00000
  320      7.32883    1.00000      7.33186    1.00000
  321      7.33403    1.00000      7.33612    1.00000
  322      7.33770    1.00000      7.34144    1.00000
  323      7.34393    1.00000      7.34648    1.00000
  324      7.34410    1.00000      7.34648    1.00000
  325      7.34410    1.00000      7.34653    1.00000
  326      7.34729    1.00000      7.34975    1.00000
  327      7.34729    1.00000      7.34975    1.00000
  328      7.35741    1.00000      7.35989    1.00000
  329      7.35925    1.00000      7.36379    1.00000
  330      7.35925    1.00000      7.36379    1.00000
  331      7.36564    1.00000      7.37628    1.00000
  332      7.37226    1.00000      7.37678    1.00000
  333      7.37226    1.00000      7.37678    1.00000
  334      7.38581    1.00000      7.38989    1.00000
  335      7.39361    1.00000      7.39902    1.00000
  336      7.39361    1.00000      7.39902    1.00000
  337      7.41604    1.00000      7.42692    1.00000
  338      7.41604    1.00000      7.42692    1.00000
  339      7.42250    1.00000      7.43009    1.00000
  340      7.42250    1.00000      7.43009    1.00000
  341      7.42909    1.00000      7.43764    1.00000
  342      7.43814    1.00000      7.44413    1.00000
  343      7.43814    1.00000      7.44413    1.00000
  344      7.44036    1.00000      7.45058    1.00000
  345      7.48685    1.00000      7.50857    1.00000
  346      7.50061    1.00000      7.51936    1.00000
  347      7.51532    1.00000      7.52288    1.00000
  348      7.51532    1.00000      7.52288    1.00000
  349      7.53010    1.00000      7.53326    1.00000
  350      7.57093    1.00000      7.60441    1.00000
  351      7.57093    1.00000      7.60441    1.00000
  352      7.60939    1.00000      7.63719    1.00000
  353      7.66241    1.00000      7.69975    1.00000
  354      7.66241    1.00000      7.69975    1.00000
  355      7.91852    1.00000      7.92895    1.00000
  356      7.92445    1.00000      7.94246    1.00000
  357      7.92445    1.00000      7.94246    1.00000
  358      8.13297    1.00000      8.13729    1.00000
  359      8.13297    1.00000      8.13729    1.00000
  360      8.15984    1.00000      8.16140    1.00000
  361      8.16596    1.00000      8.16866    1.00000
  362      8.17454    1.00000      8.17704    1.00000
  363      8.17454    1.00000      8.17704    1.00000
  364      8.20183    1.00000      8.20427    1.00000
  365      8.21158    1.00000      8.21521    1.00000
  366      8.21158    1.00000      8.21521    1.00000
  367      8.22576    1.00000      8.22976    1.00000
  368      8.22576    1.00000      8.22976    1.00000
  369      8.23228    1.00000      8.24276    1.00000
  370      8.23598    1.00000      8.24348    1.00000
  371      8.24599    1.00000      8.25655    1.00000
  372      8.24599    1.00000      8.25655    1.00000
  373      8.26372    1.00000      8.26908    1.00000
  374      8.27886    1.00000      8.30066    1.00000
  375      8.27886    1.00000      8.30066    1.00000
  376      8.39515    1.00000      8.44219    1.00000
  377      8.39515    1.00000      8.44219    1.00000
  378      8.39875    1.00000      8.45011    1.00000
  379      9.06579    1.00000      9.09640    1.00000
  380      9.17638    1.00000      9.24401    1.00000
  381      9.17638    1.00000      9.24401    1.00000
  382      9.26850    1.00000      9.51067    1.00000
  383      9.58567    1.00000      9.59169    1.00000
  384      9.58567    1.00000      9.59169    1.00000
  385      9.60434    1.00000      9.60671    1.00000
  386      9.60434    1.00000      9.60671    1.00000
  387      9.60885    1.00000      9.61227    1.00000
  388      9.61570    1.00000      9.62051    1.00000
  389      9.65932    1.00000      9.67248    1.00000
  390      9.65932    1.00000      9.67248    1.00000
  391      9.67938    1.00000      9.68957    1.00000
  392      9.71577    1.00000      9.72191    1.00000
  393      9.71577    1.00000      9.72191    1.00000
  394      9.73789    1.00000      9.75016    1.00000
  395      9.83098    1.00000      9.83446    1.00000
  396      9.83098    1.00000      9.83446    1.00000
  397      9.87764    1.00000      9.88194    1.00000
  398      9.87764    1.00000      9.88194    1.00000
  399      9.88363    1.00000      9.88882    1.00000
  400      9.88573    1.00000      9.89048    1.00000
  401      9.88573    1.00000      9.89048    1.00000
  402      9.89297    1.00000      9.90112    1.00000
  403      9.93390    1.00000      9.94642    1.00000
  404      9.93390    1.00000      9.94642    1.00000
  405      9.93984    1.00000      9.95104    1.00000
  406      9.93984    1.00000      9.95104    1.00000
  407      9.96314    1.00000      9.98768    1.00000
  408      9.99845    1.00000     10.02014    1.00000
  409      9.99845    1.00000     10.02014    1.00000
  410     10.01129    1.00000     10.03393    1.00000
  411     10.02631    1.00000     10.04126    1.00000
  412     10.02631    1.00000     10.04126    1.00000
  413     10.47951    1.00000     10.55492    1.00000
  414     10.57332    1.00000     10.60500    1.00000
  415     10.57332    1.00000     10.60500    1.00000
  416     10.58423    1.00000     10.81165    1.00000
  417     10.80956    1.00000     10.82611    1.00000
  418     10.82786    1.00000     10.83415    1.00000
  419     10.82786    1.00000     10.83415    1.00000
  420     10.83552    1.00000     10.83894    1.00000
  421     10.85889    1.00000     10.86802    1.00000
  422     10.85889    1.00000     10.86802    1.00000
  423     10.89953    1.00000     10.91858    1.00000
  424     10.94852    1.00000     10.97120    1.00000
  425     10.94852    1.00000     10.97120    1.00000
  426     12.01554    1.00000     12.10317    1.00000
  427     12.09749    1.00000     12.13834    1.00000
  428     12.09749    1.00000     12.13834    1.00000
  429     13.04902    1.00000     13.52970    1.00000
  430     14.14192    1.00000     15.45125    0.00000
  431     14.14192    1.00000     15.45127    0.00000
  432     16.40684    0.00000     16.41873    0.00000
  433     16.44160    0.00000     16.44603    0.00000
  434     16.44160    0.00000     16.44603    0.00000
  435     16.46680    0.00000     16.47660    0.00000
  436     16.46680    0.00000     16.47660    0.00000
  437     16.48245    0.00000     16.49059    0.00000
  438     16.94635    0.00000     16.95269    0.00000
  439     17.07026    0.00000     17.07728    0.00000
  440     17.07033    0.00000     17.07728    0.00000
  441     17.07654    0.00000     17.08445    0.00000
  442     17.07674    0.00000     17.08445    0.00000
  443     17.11839    0.00000     17.12633    0.00000

Fermi level: 15.27545

Gap: 1.309 eV
Transition (v -> c):
  (s=0, k=0, n=431, [[0.00, 0.00, 0.00]]) -> (s=1, k=0, n=430, [[0.00, 0.00, 0.00]])
No difference between direct/indirect transitions

Forces in eV/Ang:
  0 C    -0.00254   -0.00254   -0.00254
  1 C    -0.00065    0.00307    0.00307
  2 C     0.00307    0.00307   -0.00065
  3 C     0.00307   -0.00065    0.00307
  4 C    -0.00038   -0.00052   -0.00038
  5 C    -0.00114   -0.00114   -0.00114
  6 C    -0.00052   -0.00038   -0.00038
  7 C    -0.00038   -0.00038   -0.00052
  8 C     0.00256    0.00256    0.00746
  9 C     0.00556    0.01045    0.00714
 10 C     0.00153    0.00153    0.00741
 11 C     0.01045    0.00556    0.00714
 12 C    -0.01974    0.02176    0.02543
 13 C    -0.00295   -0.00295    0.00664
 14 C     0.02176   -0.01974    0.02543
 15 C     0.00219    0.00219    0.00401
 16 C     0.04321    0.04321    0.01668
 17 C    -0.00085   -0.00934   -0.02053
 18 C    -0.00698   -0.00698   -0.00229
 19 C    -0.00934   -0.00085   -0.02053
 20 C    -0.00031   -0.00632   -0.00680
 21 C     0.01146    0.01146   -0.01054
 22 C    -0.00632   -0.00031   -0.00680
 23 C    -0.02601   -0.02601   -0.05316
 24 C     0.00256    0.00746    0.00256
 25 C     0.00556    0.00714    0.01045
 26 C     0.01045    0.00714    0.00556
 27 C     0.00153    0.00741    0.00153
 28 C     0.00219    0.00401    0.00219
 29 C    -0.00295    0.00664   -0.00295
 30 C     0.02176    0.02543   -0.01974
 31 C    -0.01974    0.02543    0.02176
 32 C    -0.00767    0.00890    0.00890
 33 C    -0.05966    0.00354    0.00354
 34 C    -0.00887    0.01330   -0.00178
 35 C    -0.00887   -0.00178    0.01330
 36 C     0.00274   -0.01863   -0.02575
 37 C     0.00809    0.00689    0.00689
 38 C    -0.00524   -0.00199   -0.00199
 39 C     0.00274   -0.02575   -0.01863
 40 C     0.04025   -0.05186   -0.05987
 41 C    -0.01067    0.09949    0.09269
 42 C     0.00637    0.00625    0.00362
 43 C     0.00370    0.00573    0.00992
 44 C    -0.00490    0.01226   -0.00584
 45 C    -0.02664    0.00449   -0.03492
 46 C     0.01350   -0.01191    0.01827
 47 C     0.00244    0.01844   -0.00811
 48 C     0.04321    0.01668    0.04321
 49 C    -0.00085   -0.02053   -0.00934
 50 C    -0.00934   -0.02053   -0.00085
 51 C    -0.00698   -0.00229   -0.00698
 52 C    -0.02601   -0.05316   -0.02601
 53 C     0.01146   -0.01054    0.01146
 54 C    -0.00632   -0.00680   -0.00031
 55 C    -0.00031   -0.00680   -0.00632
 56 C     0.04025   -0.05987   -0.05186
 57 C    -0.01067    0.09269    0.09949
 58 C     0.00370    0.00992    0.00573
 59 C     0.00637    0.00362    0.00625
 60 C     0.00244   -0.00811    0.01844
 61 C    -0.02664   -0.03492    0.00449
 62 C     0.01350    0.01827   -0.01191
 63 C    -0.00490   -0.00584    0.01226
 64 C    -0.05632    0.01469    0.01469
 65 C    -0.02105   -0.03167   -0.03167
 66 C     0.00690   -0.00448   -0.00692
 67 C     0.00690   -0.00692   -0.00448
 68 C     0.00131    0.02479    0.02105
 69 C     0.01197   -0.00060   -0.00060
 70 C    -0.00503    0.00232    0.00232
 71 C     0.00131    0.02105    0.02479
 72 C     0.00746    0.00256    0.00256
 73 C     0.00741    0.00153    0.00153
 74 C     0.00714    0.01045    0.00556
 75 C     0.00714    0.00556    0.01045
 76 C     0.02543    0.02176   -0.01974
 77 C     0.00664   -0.00295   -0.00295
 78 C     0.00401    0.00219    0.00219
 79 C     0.02543   -0.01974    0.02176
 80 C     0.00890   -0.00767    0.00890
 81 C    -0.00178   -0.00887    0.01330
 82 C     0.01330   -0.00887   -0.00178
 83 C     0.00354   -0.05966    0.00354
 84 C    -0.00199   -0.00524   -0.00199
 85 C     0.00689    0.00809    0.00689
 86 C    -0.01863    0.00274   -0.02575
 87 C    -0.02575    0.00274   -0.01863
 88 C    -0.05186    0.04025   -0.05987
 89 C     0.00573    0.00370    0.00992
 90 C     0.00625    0.00637    0.00362
 91 C     0.09949   -0.01067    0.09269
 92 C    -0.01191    0.01350    0.01827
 93 C     0.00449   -0.02664   -0.03492
 94 C     0.01226   -0.00490   -0.00584
 95 C     0.01844    0.00244   -0.00811
 96 C     0.00890    0.00890   -0.00767
 97 C    -0.00178    0.01330   -0.00887
 98 C     0.00354    0.00354   -0.05966
 99 C     0.01330   -0.00178   -0.00887
100 C    -0.02575   -0.01863    0.00274
101 C     0.00689    0.00689    0.00809
102 C    -0.01863   -0.02575    0.00274
103 C    -0.00199   -0.00199   -0.00524
104 C     0.00422    0.00422    0.00422
105 C    -0.01599    0.05828    0.05828
106 C     0.05828    0.05828   -0.01599
107 C     0.05828   -0.01599    0.05828
108 C    -0.07994    0.04187   -0.07994
109 C     0.00177    0.00177    0.00177
110 C     0.04187   -0.07994   -0.07994
111 C    -0.07994   -0.07994    0.04187
112 C    -0.05224   -0.05224    0.08687
113 C     0.06544    0.00942   -0.02013
114 C     0.71601    0.71601    0.38485
115 C     0.00942    0.06544   -0.02013
116 C     0.05506   -0.11759    0.12762
117 C    -0.13627   -0.13627   -0.13025
118 C    -0.11759    0.05506    0.12762
119 C    -1.52375   -1.52375    0.69812
120 C    -0.05186   -0.05987    0.04025
121 C     0.00573    0.00992    0.00370
122 C     0.09949    0.09269   -0.01067
123 C     0.00625    0.00362    0.00637
124 C     0.01844   -0.00811    0.00244
125 C     0.00449   -0.03492   -0.02664
126 C     0.01226   -0.00584   -0.00490
127 C    -0.01191    0.01827    0.01350
128 C    -0.05224    0.08687   -0.05224
129 C     0.06544   -0.02013    0.00942
130 C     0.00942   -0.02013    0.06544
131 C     0.71601    0.38485    0.71601
132 C    -1.52375    0.69812   -1.52375
133 C    -0.13627   -0.13025   -0.13627
134 C    -0.11759    0.12762    0.05506
135 C     0.05506    0.12762   -0.11759
136 C     0.12481   -0.01331   -0.01331
137 C    -0.04247   -0.06258   -0.06258
138 C     0.78151   -0.85371   -0.14170
139 C     0.78151   -0.14170   -0.85371
140 C     0.08074   -0.20980   -0.24027
141 C    -0.00019    0.10538    0.10538
142 C    -0.01499   -0.01152   -0.01152
143 C     0.08074   -0.24027   -0.20980
144 C     0.01668    0.04321    0.04321
145 C    -0.00229   -0.00698   -0.00698
146 C    -0.02053   -0.00934   -0.00085
147 C    -0.02053   -0.00085   -0.00934
148 C    -0.00680   -0.00632   -0.00031
149 C    -0.01054    0.01146    0.01146
150 C    -0.05316   -0.02601   -0.02601
151 C    -0.00680   -0.00031   -0.00632
152 C    -0.05987    0.04025   -0.05186
153 C     0.00362    0.00637    0.00625
154 C     0.00992    0.00370    0.00573
155 C     0.09269   -0.01067    0.09949
156 C     0.01827    0.01350   -0.01191
157 C    -0.03492   -0.02664    0.00449
158 C    -0.00811    0.00244    0.01844
159 C    -0.00584   -0.00490    0.01226
160 C     0.01469   -0.05632    0.01469
161 C    -0.00692    0.00690   -0.00448
162 C    -0.00448    0.00690   -0.00692
163 C    -0.03167   -0.02105   -0.03167
164 C     0.00232   -0.00503    0.00232
165 C    -0.00060    0.01197   -0.00060
166 C     0.02479    0.00131    0.02105
167 C     0.02105    0.00131    0.02479
168 C    -0.05987   -0.05186    0.04025
169 C     0.00362    0.00625    0.00637
170 C     0.09269    0.09949   -0.01067
171 C     0.00992    0.00573    0.00370
172 C    -0.00584    0.01226   -0.00490
173 C    -0.03492    0.00449   -0.02664
174 C    -0.00811    0.01844    0.00244
175 C     0.01827   -0.01191    0.01350
176 C     0.08687   -0.05224   -0.05224
177 C     0.38485    0.71601    0.71601
178 C    -0.02013    0.00942    0.06544
179 C    -0.02013    0.06544    0.00942
180 C     0.12762   -0.11759    0.05506
181 C    -0.13025   -0.13627   -0.13627
182 C     0.69812   -1.52375   -1.52375
183 C     0.12762    0.05506   -0.11759
184 C    -0.01331    0.12481   -0.01331
185 C    -0.14170    0.78151   -0.85371
186 C    -0.85371    0.78151   -0.14170
187 C    -0.06258   -0.04247   -0.06258
188 C    -0.01152   -0.01499   -0.01152
189 C     0.10538   -0.00019    0.10538
190 C    -0.20980    0.08074   -0.24027
191 C    -0.24027    0.08074   -0.20980
192 C     0.01469    0.01469   -0.05632
193 C    -0.00692   -0.00448    0.00690
194 C    -0.03167   -0.03167   -0.02105
195 C    -0.00448   -0.00692    0.00690
196 C     0.02105    0.02479    0.00131
197 C    -0.00060   -0.00060    0.01197
198 C     0.02479    0.02105    0.00131
199 C     0.00232    0.00232   -0.00503
200 C    -0.01331   -0.01331    0.12481
201 C    -0.14170   -0.85371    0.78151
202 C    -0.06258   -0.06258   -0.04247
203 C    -0.85371   -0.14170    0.78151
204 C    -0.24027   -0.20980    0.08074
205 C     0.10538    0.10538   -0.00019
206 C    -0.20980   -0.24027    0.08074
207 C    -0.01152   -0.01152   -0.01499
208 C     1.02523   -0.52083   -0.52083
209 C    -0.52083   -0.52083    1.02523
210 C    -0.52083    1.02523   -0.52083
211 C     0.06956   -0.11869    0.06956
212 N     1.61776    1.61776    1.61776
213 C    -0.11869    0.06956    0.06956
214 C     0.06956    0.06956   -0.11869

System changes: positions 

Initializing position-dependent things.

Density initialized from wave functions
        .-------------------------C  
       /|  C        C       C     |  
      / | C C     C  C C   C  C   |  
     /  |    C C     C  C C   C  C|  
    /  C|     C C C    C C C   C  |  
   /    C C C    C C      N C     |  
  /  C C| CCCCC   C C C C  C CCC  |  
 *    C C    CCCCC   C C C    C C |  
 |     CCC C  C C CC   CCCCCC  C C|  
 | C    CCC C    CCC C    CC      |  
 |  C C | CCCC C  CCCCC C  CC C   |  
 C   CC C C C C C   C CC C   CC   |  
 |C   C CC C C CCCC CC CCCC      C|  
 |   C C.CC-C-C-C-CC-C---C-C-C-C--.  
 |  CC CC C CC   C C CC C C C    /   
 |   CC C   C CC    C C  C   C  /    
 C   /C CC     CCCC    C C     /     
 |  /    C C      CC       CC /      
 | /C       C C      C       /       
 |/            C            /        
 *--------C-------C--------*         

Positions:
   0 C     -0.000036   -0.000036   -0.000036    ( 0.0000,  0.0000,  0.0000)
   1 C     -0.000009    1.773260    1.773260    ( 0.0000,  0.0000,  0.0000)
   2 C      1.773260    1.773260   -0.000009    ( 0.0000,  0.0000,  0.0000)
   3 C      1.773260   -0.000009    1.773260    ( 0.0000,  0.0000,  0.0000)
   4 C      2.659818    0.886600    2.659818    ( 0.0000,  0.0000,  0.0000)
   5 C      0.886592    0.886592    0.886592    ( 0.0000,  0.0000,  0.0000)
   6 C      0.886600    2.659818    2.659818    ( 0.0000,  0.0000,  0.0000)
   7 C      2.659818    2.659818    0.886600    ( 0.0000,  0.0000,  0.0000)
   8 C      0.000037    0.000037    3.546538    ( 0.0000,  0.0000,  0.0000)
   9 C      0.000079    1.773365    5.319750    ( 0.0000,  0.0000,  0.0000)
  10 C      1.773238    1.773238    3.546538    ( 0.0000,  0.0000,  0.0000)
  11 C      1.773365    0.000079    5.319750    ( 0.0000,  0.0000,  0.0000)
  12 C      2.659542    0.886919    6.206619    ( 0.0000,  0.0000,  0.0000)
  13 C      0.886566    0.886566    4.433135    ( 0.0000,  0.0000,  0.0000)
  14 C      0.886919    2.659542    6.206619    ( 0.0000,  0.0000,  0.0000)
  15 C      2.659855    2.659855    4.433097    ( 0.0000,  0.0000,  0.0000)
  16 C      0.000617    0.000617    7.093102    ( 0.0000,  0.0000,  0.0000)
  17 C     -0.000012    1.773082    8.865786    ( 0.0000,  0.0000,  0.0000)
  18 C      1.773116    1.773116    7.092831    ( 0.0000,  0.0000,  0.0000)
  19 C      1.773082   -0.000012    8.865786    ( 0.0000,  0.0000,  0.0000)
  20 C      2.659819    0.886518    9.752590    ( 0.0000,  0.0000,  0.0000)
  21 C      0.886772    0.886772    7.979321    ( 0.0000,  0.0000,  0.0000)
  22 C      0.886518    2.659819    9.752590    ( 0.0000,  0.0000,  0.0000)
  23 C      2.659452    2.659452    7.978712    ( 0.0000,  0.0000,  0.0000)
  24 C      0.000037    3.546538    0.000037    ( 0.0000,  0.0000,  0.0000)
  25 C      0.000079    5.319750    1.773365    ( 0.0000,  0.0000,  0.0000)
  26 C      1.773365    5.319750    0.000079    ( 0.0000,  0.0000,  0.0000)
  27 C      1.773238    3.546538    1.773238    ( 0.0000,  0.0000,  0.0000)
  28 C      2.659855    4.433097    2.659855    ( 0.0000,  0.0000,  0.0000)
  29 C      0.886566    4.433135    0.886566    ( 0.0000,  0.0000,  0.0000)
  30 C      0.886919    6.206619    2.659542    ( 0.0000,  0.0000,  0.0000)
  31 C      2.659542    6.206619    0.886919    ( 0.0000,  0.0000,  0.0000)
  32 C     -0.000110    3.546559    3.546559    ( 0.0000,  0.0000,  0.0000)
  33 C     -0.000852    5.319698    5.319698    ( 0.0000,  0.0000,  0.0000)
  34 C      1.773089    5.319838    3.546406    ( 0.0000,  0.0000,  0.0000)
  35 C      1.773089    3.546406    5.319838    ( 0.0000,  0.0000,  0.0000)
  36 C      2.659863    4.432774    6.205888    ( 0.0000,  0.0000,  0.0000)
  37 C      0.886724    4.433138    4.433138    ( 0.0000,  0.0000,  0.0000)
  38 C      0.886533    6.206227    6.206227    ( 0.0000,  0.0000,  0.0000)
  39 C      2.659863    6.205888    4.432774    ( 0.0000,  0.0000,  0.0000)
  40 C      0.000575    3.545691    7.092008    ( 0.0000,  0.0000,  0.0000)
  41 C     -0.000152    5.321069    8.867404    ( 0.0000,  0.0000,  0.0000)
  42 C      1.773307    5.319737    7.092915    ( 0.0000,  0.0000,  0.0000)
  43 C      1.773269    3.546514    8.866221    ( 0.0000,  0.0000,  0.0000)
  44 C      2.659754    4.433215    9.752604    ( 0.0000,  0.0000,  0.0000)
  45 C      0.886227    4.433104    7.978973    ( 0.0000,  0.0000,  0.0000)
  46 C      0.886801    6.206085    9.752948    ( 0.0000,  0.0000,  0.0000)
  47 C      2.659859    6.206519    7.979356    ( 0.0000,  0.0000,  0.0000)
  48 C      0.000617    7.093102    0.000617    ( 0.0000,  0.0000,  0.0000)
  49 C     -0.000012    8.865786    1.773082    ( 0.0000,  0.0000,  0.0000)
  50 C      1.773082    8.865786   -0.000012    ( 0.0000,  0.0000,  0.0000)
  51 C      1.773116    7.092831    1.773116    ( 0.0000,  0.0000,  0.0000)
  52 C      2.659452    7.978712    2.659452    ( 0.0000,  0.0000,  0.0000)
  53 C      0.886772    7.979321    0.886772    ( 0.0000,  0.0000,  0.0000)
  54 C      0.886518    9.752590    2.659819    ( 0.0000,  0.0000,  0.0000)
  55 C      2.659819    9.752590    0.886518    ( 0.0000,  0.0000,  0.0000)
  56 C      0.000575    7.092008    3.545691    ( 0.0000,  0.0000,  0.0000)
  57 C     -0.000152    8.867404    5.321069    ( 0.0000,  0.0000,  0.0000)
  58 C      1.773269    8.866221    3.546514    ( 0.0000,  0.0000,  0.0000)
  59 C      1.773307    7.092915    5.319737    ( 0.0000,  0.0000,  0.0000)
  60 C      2.659859    7.979356    6.206519    ( 0.0000,  0.0000,  0.0000)
  61 C      0.886227    7.978973    4.433104    ( 0.0000,  0.0000,  0.0000)
  62 C      0.886801    9.752948    6.206085    ( 0.0000,  0.0000,  0.0000)
  63 C      2.659754    9.752604    4.433215    ( 0.0000,  0.0000,  0.0000)
  64 C     -0.000805    7.093073    7.093073    ( 0.0000,  0.0000,  0.0000)
  65 C     -0.000301    8.865627    8.865627    ( 0.0000,  0.0000,  0.0000)
  66 C      1.773314    8.866016    7.092765    ( 0.0000,  0.0000,  0.0000)
  67 C      1.773314    7.092765    8.866016    ( 0.0000,  0.0000,  0.0000)
  68 C      2.659843    7.979826    9.752988    ( 0.0000,  0.0000,  0.0000)
[...]
  362      8.16431    1.00000      8.16684    1.00000
  363      8.17095    1.00000      8.17312    1.00000
  364      8.20049    1.00000      8.20580    1.00000
  365      8.20194    1.00000      8.20580    1.00000
  366      8.20194    1.00000      8.20709    1.00000
  367      8.20587    1.00000      8.21508    1.00000
  368      8.22383    1.00000      8.23109    1.00000
  369      8.22383    1.00000      8.23109    1.00000
  370      8.23551    1.00000      8.24385    1.00000
  371      8.23551    1.00000      8.24944    1.00000
  372      8.23606    1.00000      8.24944    1.00000
  373      8.24425    1.00000      8.26453    1.00000
  374      8.24425    1.00000      8.26453    1.00000
  375      8.26390    1.00000      8.27011    1.00000
  376      8.30328    1.00000      8.33325    1.00000
  377      8.30328    1.00000      8.33325    1.00000
  378      8.36824    1.00000      8.40606    1.00000
  379      9.04462    1.00000      9.06134    1.00000
  380      9.16353    1.00000      9.23282    1.00000
  381      9.16353    1.00000      9.23282    1.00000
  382      9.49291    1.00000      9.56848    1.00000
  383      9.55590    1.00000      9.56848    1.00000
  384      9.55590    1.00000      9.60758    1.00000
  385      9.60543    1.00000      9.60758    1.00000
  386      9.60543    1.00000      9.61454    1.00000
  387      9.60850    1.00000      9.62750    1.00000
  388      9.62518    1.00000      9.62837    1.00000
  389      9.63144    1.00000      9.64628    1.00000
  390      9.63144    1.00000      9.64628    1.00000
  391      9.63577    1.00000      9.67408    1.00000
  392      9.70907    1.00000      9.71474    1.00000
  393      9.70907    1.00000      9.71474    1.00000
  394      9.72014    1.00000      9.72952    1.00000
  395      9.81421    1.00000      9.81883    1.00000
  396      9.81421    1.00000      9.81883    1.00000
  397      9.87595    1.00000      9.88374    1.00000
  398      9.87958    1.00000      9.88374    1.00000
  399      9.87958    1.00000      9.88467    1.00000
  400      9.88643    1.00000      9.89302    1.00000
  401      9.88643    1.00000      9.89302    1.00000
  402      9.89142    1.00000      9.90395    1.00000
  403      9.89142    1.00000      9.90524    1.00000
  404      9.89845    1.00000      9.90524    1.00000
  405      9.91884    1.00000      9.93647    1.00000
  406      9.91884    1.00000      9.93647    1.00000
  407      9.94808    1.00000      9.96884    1.00000
  408      9.97249    1.00000      9.98378    1.00000
  409      9.97249    1.00000      9.98378    1.00000
  410      9.97384    1.00000      9.98544    1.00000
  411     10.00858    1.00000     10.01520    1.00000
  412     10.00858    1.00000     10.01520    1.00000
  413     10.55380    1.00000     10.56660    1.00000
  414     10.57637    1.00000     10.60604    1.00000
  415     10.57637    1.00000     10.60604    1.00000
  416     10.80868    1.00000     10.81632    1.00000
  417     10.80868    1.00000     10.81632    1.00000
  418     10.81959    1.00000     10.82156    1.00000
  419     10.84324    1.00000     10.84971    1.00000
  420     10.84484    1.00000     10.85180    1.00000
  421     10.84652    1.00000     10.85180    1.00000
  422     10.84652    1.00000     10.88762    1.00000
  423     10.87311    1.00000     10.92658    1.00000
  424     10.90862    1.00000     10.92658    1.00000
  425     10.90862    1.00000     11.16589    1.00000
  426     11.99849    1.00000     12.10691    1.00000
  427     12.09571    1.00000     12.13440    1.00000
  428     12.09571    1.00000     12.13440    1.00000
  429     12.95477    1.00000     13.44300    1.00000
  430     14.13432    1.00000     15.34350    0.00000
  431     14.13432    1.00000     15.34350    0.00000
  432     16.43060    0.00000     16.43468    0.00000
  433     16.43060    0.00000     16.43468    0.00000
  434     16.44482    0.00000     16.45527    0.00000
  435     16.48150    0.00000     16.49241    0.00000
  436     16.48150    0.00000     16.49241    0.00000
  437     16.50479    0.00000     16.51393    0.00000
  438     16.99215    0.00000     16.99749    0.00000
  439     17.06125    0.00000     17.06934    0.00000
  440     17.06125    0.00000     17.06934    0.00000
  441     17.07680    0.00000     17.08357    0.00000
  442     17.07682    0.00000     17.08357    0.00000
  443     17.14011    0.00000     17.14942    0.00000

Fermi level: 15.28228

Gap: 1.209 eV
Transition (v -> c):
  (s=0, k=0, n=431, [[0.00, 0.00, 0.00]]) -> (s=1, k=0, n=430, [[0.00, 0.00, 0.00]])
No difference between direct/indirect transitions

Forces in eV/Ang:
  0 C    -0.00003   -0.00003   -0.00003
  1 C     0.00426    0.00129    0.00129
  2 C     0.00129    0.00129    0.00426
  3 C     0.00129    0.00426    0.00129
  4 C     0.00018   -0.00086    0.00018
  5 C     0.00180    0.00180    0.00180
  6 C    -0.00086    0.00018    0.00018
  7 C     0.00018    0.00018   -0.00086
  8 C     0.00396    0.00396   -0.00170
  9 C    -0.00302    0.00114   -0.00038
 10 C    -0.00020   -0.00020   -0.00423
 11 C     0.00114   -0.00302   -0.00038
 12 C     0.00207   -0.00131    0.00190
 13 C     0.00352    0.00352   -0.00338
 14 C    -0.00131    0.00207    0.00190
 15 C    -0.00350   -0.00350   -0.00573
 16 C     0.00014    0.00014   -0.00075
 17 C    -0.00065   -0.00162    0.00323
 18 C    -0.00046   -0.00046    0.00056
 19 C    -0.00162   -0.00065    0.00323
 20 C    -0.00245    0.00411    0.00420
 21 C    -0.00136   -0.00136   -0.00065
 22 C     0.00411   -0.00245    0.00420
 23 C     0.00093    0.00093   -0.00288
 24 C     0.00396   -0.00170    0.00396
 25 C    -0.00302   -0.00038    0.00114
 26 C     0.00114   -0.00038   -0.00302
 27 C    -0.00020   -0.00423   -0.00020
 28 C    -0.00350   -0.00573   -0.00350
 29 C     0.00352   -0.00338    0.00352
 30 C    -0.00131    0.00190    0.00207
 31 C     0.00207    0.00190   -0.00131
 32 C    -0.00316    0.00224    0.00224
 33 C    -0.00519    0.00110    0.00110
 34 C    -0.00126   -0.00273    0.00180
 35 C    -0.00126    0.00180   -0.00273
 36 C     0.00235    0.00066   -0.00458
 37 C    -0.00507    0.00187    0.00187
 38 C    -0.00338   -0.00014   -0.00014
 39 C     0.00235   -0.00458    0.00066
 40 C    -0.00077    0.00176    0.00341
 41 C    -0.00360    0.00402   -0.00243
 42 C     0.00044    0.00091   -0.00217
 43 C     0.00091    0.00349    0.00055
 44 C     0.00459    0.00384   -0.00401
 45 C    -0.00296    0.00465    0.00097
 46 C    -0.00318    0.00010   -0.00350
 47 C     0.00273    0.00186   -0.00247
 48 C     0.00014   -0.00075    0.00014
 49 C    -0.00065    0.00323   -0.00162
 50 C    -0.00162    0.00323   -0.00065
 51 C    -0.00046    0.00056   -0.00046
 52 C     0.00093   -0.00288    0.00093
 53 C    -0.00136   -0.00065   -0.00136
 54 C     0.00411    0.00420   -0.00245
 55 C    -0.00245    0.00420    0.00411
 56 C    -0.00077    0.00341    0.00176
 57 C    -0.00360   -0.00243    0.00402
 58 C     0.00091    0.00055    0.00349
 59 C     0.00044   -0.00217    0.00091
 60 C     0.00273   -0.00247    0.00186
 61 C    -0.00296    0.00097    0.00465
 62 C    -0.00318   -0.00350    0.00010
 63 C     0.00459   -0.00401    0.00384
 64 C    -0.00450    0.00018    0.00018
 65 C    -0.00069   -0.00100   -0.00100
 66 C     0.00053   -0.00174    0.00075
 67 C     0.00053    0.00075   -0.00174
 68 C     0.00272    0.00420   -0.00079
 69 C    -0.00162   -0.00172   -0.00172
 70 C    -0.00293   -0.00055   -0.00055
 71 C     0.00272   -0.00079    0.00420
 72 C    -0.00170    0.00396    0.00396
 73 C    -0.00423   -0.00020   -0.00020
 74 C    -0.00038    0.00114   -0.00302
 75 C    -0.00038   -0.00302    0.00114
 76 C     0.00190   -0.00131    0.00207
 77 C    -0.00338    0.00352    0.00352
 78 C    -0.00573   -0.00350   -0.00350
 79 C     0.00190    0.00207   -0.00131
 80 C     0.00224   -0.00316    0.00224
 81 C     0.00180   -0.00126   -0.00273
 82 C    -0.00273   -0.00126    0.00180
 83 C     0.00110   -0.00519    0.00110
 84 C    -0.00014   -0.00338   -0.00014
 85 C     0.00187   -0.00507    0.00187
 86 C     0.00066    0.00235   -0.00458
 87 C    -0.00458    0.00235    0.00066
 88 C     0.00176   -0.00077    0.00341
 89 C     0.00349    0.00091    0.00055
 90 C     0.00091    0.00044   -0.00217
 91 C     0.00402   -0.00360   -0.00243
 92 C     0.00010   -0.00318   -0.00350
 93 C     0.00465   -0.00296    0.00097
 94 C     0.00384    0.00459   -0.00401
 95 C     0.00186    0.00273   -0.00247
 96 C     0.00224    0.00224   -0.00316
 97 C     0.00180   -0.00273   -0.00126
 98 C     0.00110    0.00110   -0.00519
 99 C    -0.00273    0.00180   -0.00126
100 C    -0.00458    0.00066    0.00235
101 C     0.00187    0.00187   -0.00507
102 C     0.00066   -0.00458    0.00235
103 C    -0.00014   -0.00014   -0.00338
104 C    -0.00409   -0.00409   -0.00409
105 C     0.00152   -0.00168   -0.00168
106 C    -0.00168   -0.00168    0.00152
107 C    -0.00168    0.00152   -0.00168
108 C    -0.00337   -0.00265   -0.00337
109 C    -0.00121   -0.00121   -0.00121
110 C    -0.00265   -0.00337   -0.00337
111 C    -0.00337   -0.00337   -0.00265
112 C    -0.00021   -0.00021   -0.00572
113 C     0.00385    0.00285   -0.00475
114 C    -0.00237   -0.00237   -0.00271
115 C     0.00285    0.00385   -0.00475
116 C     0.00246    0.00073   -0.00190
117 C    -0.00034   -0.00034   -0.00458
118 C     0.00073    0.00246   -0.00190
119 C     0.00043    0.00043   -0.00370
120 C     0.00176    0.00341   -0.00077
121 C     0.00349    0.00055    0.00091
122 C     0.00402   -0.00243   -0.00360
123 C     0.00091   -0.00217    0.00044
124 C     0.00186   -0.00247    0.00273
125 C     0.00465    0.00097   -0.00296
126 C     0.00384   -0.00401    0.00459
127 C     0.00010   -0.00350   -0.00318
128 C    -0.00021   -0.00572   -0.00021
129 C     0.00385   -0.00475    0.00285
130 C     0.00285   -0.00475    0.00385
131 C    -0.00237   -0.00271   -0.00237
132 C     0.00043   -0.00370    0.00043
133 C    -0.00034   -0.00458   -0.00034
134 C     0.00073   -0.00190    0.00246
135 C     0.00246   -0.00190    0.00073
136 C     0.00290   -0.00048   -0.00048
137 C     0.00446    0.00095    0.00095
138 C    -0.00122    0.00146    0.00127
139 C    -0.00122    0.00127    0.00146
140 C    -0.00188    0.00161    0.00032
141 C     0.00116    0.00250    0.00250
142 C     0.00430    0.00017    0.00017
143 C    -0.00188    0.00032    0.00161
144 C    -0.00075    0.00014    0.00014
145 C     0.00056   -0.00046   -0.00046
146 C     0.00323   -0.00162   -0.00065
147 C     0.00323   -0.00065   -0.00162
148 C     0.00420    0.00411   -0.00245
149 C    -0.00065   -0.00136   -0.00136
150 C    -0.00288    0.00093    0.00093
151 C     0.00420   -0.00245    0.00411
152 C     0.00341   -0.00077    0.00176
153 C    -0.00217    0.00044    0.00091
154 C     0.00055    0.00091    0.00349
155 C    -0.00243   -0.00360    0.00402
156 C    -0.00350   -0.00318    0.00010
157 C     0.00097   -0.00296    0.00465
158 C    -0.00247    0.00273    0.00186
159 C    -0.00401    0.00459    0.00384
160 C     0.00018   -0.00450    0.00018
161 C     0.00075    0.00053   -0.00174
162 C    -0.00174    0.00053    0.00075
163 C    -0.00100   -0.00069   -0.00100
164 C    -0.00055   -0.00293   -0.00055
165 C    -0.00172   -0.00162   -0.00172
166 C     0.00420    0.00272   -0.00079
167 C    -0.00079    0.00272    0.00420
168 C     0.00341    0.00176   -0.00077
169 C    -0.00217    0.00091    0.00044
170 C    -0.00243    0.00402   -0.00360
171 C     0.00055    0.00349    0.00091
172 C    -0.00401    0.00384    0.00459
173 C     0.00097    0.00465   -0.00296
174 C    -0.00247    0.00186    0.00273
175 C    -0.00350    0.00010   -0.00318
176 C    -0.00572   -0.00021   -0.00021
177 C    -0.00271   -0.00237   -0.00237
178 C    -0.00475    0.00285    0.00385
179 C    -0.00475    0.00385    0.00285
180 C    -0.00190    0.00073    0.00246
181 C    -0.00458   -0.00034   -0.00034
182 C    -0.00370    0.00043    0.00043
183 C    -0.00190    0.00246    0.00073
184 C    -0.00048    0.00290   -0.00048
185 C     0.00127   -0.00122    0.00146
186 C     0.00146   -0.00122    0.00127
187 C     0.00095    0.00446    0.00095
188 C     0.00017    0.00430    0.00017
189 C     0.00250    0.00116    0.00250
190 C     0.00161   -0.00188    0.00032
191 C     0.00032   -0.00188    0.00161
192 C     0.00018    0.00018   -0.00450
193 C     0.00075   -0.00174    0.00053
194 C    -0.00100   -0.00100   -0.00069
195 C    -0.00174    0.00075    0.00053
196 C    -0.00079    0.00420    0.00272
197 C    -0.00172   -0.00172   -0.00162
198 C     0.00420   -0.00079    0.00272
199 C    -0.00055   -0.00055   -0.00293
200 C    -0.00048   -0.00048    0.00290
201 C     0.00127    0.00146   -0.00122
202 C     0.00095    0.00095    0.00446
203 C     0.00146    0.00127   -0.00122
204 C     0.00032    0.00161   -0.00188
205 C     0.00250    0.00250    0.00116
206 C     0.00161    0.00032   -0.00188
207 C     0.00017    0.00017    0.00430
208 C    -0.00248    0.00282    0.00282
209 C     0.00282    0.00282   -0.00248
210 C     0.00282   -0.00248    0.00282
211 C     0.00201   -0.00037    0.00201
212 N     0.00001    0.00001    0.00001
213 C    -0.00037    0.00201    0.00201
214 C     0.00201    0.00201   -0.00037

Writing to nvcenter_gs_relax.gpw (mode='all')

Timing:                                      incl.     excl.
-------------------------------------------------------------------
Density initialized from wave functions:     5.130     5.130   0.6% |
 Symmetrize density:                         0.000     0.000   0.0% |
Forces:                                     30.898    30.898   3.5% ||
Hamiltonian:                                 7.144     0.111   0.0% |
 Atomic:                                     1.990     0.012   0.0% |
  XC Correction:                             1.977     1.977   0.2% |
 Calculate atomic Hamiltonians:              2.741     2.741   0.3% |
 Communicate:                                0.725     0.725   0.1% |
 Initialize Hamiltonian:                     0.000     0.000   0.0% |
 Poisson:                                    0.021     0.021   0.0% |
 XC 3D grid:                                 1.556     1.556   0.2% |
LCAO initialization:                        12.424     0.077   0.0% |
 LCAO eigensolver:                           2.016     0.002   0.0% |
  Calculate projections:                     0.021     0.021   0.0% |
  DenseAtomicCorrection:                     0.031     0.031   0.0% |
  Distribute overlap matrix:                 0.148     0.148   0.0% |
  Orbital Layouts:                           0.853     0.853   0.1% |
  Potential matrix:                          0.960     0.960   0.1% |
 LCAO to grid:                               9.061     9.061   1.0% |
 Set positions (LCAO WFS):                   1.269     0.151   0.0% |
  Basic WFS set positions:                   0.011     0.011   0.0% |
  Basis functions set positions:             0.001     0.001   0.0% |
  P tci:                                     0.268     0.268   0.0% |
  ST tci:                                    0.096     0.096   0.0% |
  mktci:                                     0.743     0.743   0.1% |
PWDescriptor:                                0.236     0.236   0.0% |
Redistribute:                                0.013     0.013   0.0% |
SCF-cycle:                                 804.444    11.648   1.3% ||
 Apply H:                                    2.837     2.783   0.3% |
  HMM T:                                     0.055     0.055   0.0% |
 Density:                                    6.112     0.000   0.0% |
  Atomic density matrices:                   0.190     0.190   0.0% |
  Mix:                                       4.357     4.357   0.5% |
  Multipole moments:                         0.003     0.003   0.0% |
  Pseudo density:                            1.562     1.562   0.2% |
   Symmetrize density:                       0.000     0.000   0.0% |
 Direct Minimisation step:                 772.514   135.250  15.4% |-----|
  Apply H:                                  31.261    30.534   3.5% ||
   HMM T:                                    0.727     0.727   0.1% |
  Density:                                  77.503     0.003   0.0% |
   Atomic density matrices:                  2.593     2.593   0.3% |
   Mix:                                     56.122    56.122   6.4% |--|
   Multipole moments:                        0.191     0.191   0.0% |
   Pseudo density:                          18.593    18.592   2.1% ||
    Symmetrize density:                      0.002     0.002   0.0% |
  Get Search Direction:                     83.732    83.732   9.6% |---|
  Gradient unoccupied orbitals:            236.745   143.533  16.4% |------|
   Apply H:                                  8.929     8.906   1.0% |
    HMM T:                                   0.023     0.023   0.0% |
   Orthonormalize:                          84.284     0.086   0.0% |
    calc_s_matrix:                           6.329     6.329   0.7% |
    inverse-cholesky:                       11.439    11.439   1.3% ||
    projections:                            58.666    58.666   6.7% |--|
    rotate_psi_s:                            7.763     7.763   0.9% |
  Hamiltonian:                              98.595     1.406   0.2% |
   Atomic:                                  26.282     0.289   0.0% |
    XC Correction:                          25.993    25.993   3.0% ||
   Calculate atomic Hamiltonians:           35.500    35.500   4.1% |-|
   Communicate:                              9.293     9.293   1.1% |
   New Kinetic Energy:                       7.034     7.034   0.8% |
   Poisson:                                  0.042     0.042   0.0% |
   XC 3D grid:                              19.038    19.038   2.2% ||
  Orthonormalize:                           64.540     0.065   0.0% |
   Orthonormalize:                           4.967     0.008   0.0% |
    calc_s_matrix:                           0.341     0.341   0.0% |
    inverse-cholesky:                        0.675     0.675   0.1% |
    projections:                             3.515     3.515   0.4% |
    rotate_psi_s:                            0.428     0.428   0.0% |
   calc_s_matrix:                            4.060     4.060   0.5% |
   inverse-cholesky:                         8.657     8.657   1.0% |
   projections:                             41.574    41.574   4.7% |-|
   rotate_psi_s:                             5.219     5.219   0.6% |
  projections:                              44.888    44.888   5.1% |-|
 Hamiltonian:                                7.403     0.118   0.0% |
  Atomic:                                    2.000     0.036   0.0% |
   XC Correction:                            1.964     1.964   0.2% |
  Calculate atomic Hamiltonians:             2.664     2.664   0.3% |
  Communicate:                               0.687     0.687   0.1% |
  New Kinetic Energy:                        0.451     0.451   0.1% |
  Poisson:                                   0.003     0.003   0.0% |
  XC 3D grid:                                1.479     1.479   0.2% |
 Subspace diag:                              0.558     0.001   0.0% |
  calc_h_matrix:                             0.264     0.060   0.0% |
   Apply H:                                  0.204     0.198   0.0% |
    HMM T:                                   0.006     0.006   0.0% |
  diagonalize:                               0.249     0.249   0.0% |
  rotate_psi:                                0.043     0.043   0.0% |
 projections:                                3.372     3.372   0.4% |
Set symmetry:                                0.000     0.000   0.0% |
Other:                                      15.631    15.631   1.8% ||
-------------------------------------------------------------------
Total:                                               875.922 100.0%

Memory usage: 946.76 MiB
Date: Wed Sep 18 22:18:55 2024
