
  ___ ___ ___ _ _ _  
 |   |   |_  | | | | 
 | | | | | . | | | | 
 |__ |  _|___|_____|  24.6.0
 |___|_|             

User:   ac2uoma125@i01r3n15
Date:   Wed Sep 25 15:08:18 2024
Arch:   x86_64
Pid:    60095
CWD:    /work/home/ac2uoma125/gpaw/hse06_nvcenter_215/tri_es
Python: 3.12.5
gpaw:   /work/home/ac2uoma125/anaconda3/envs/gpaw2460/lib/python3.12/site-packages/gpaw
_gpaw:  /work/home/ac2uoma125/anaconda3/envs/gpaw2460/lib/python3.12/site-packages/
        _gpaw.cpython-312-x86_64-linux-gnu.so
ase:    /work/home/ac2uoma125/anaconda3/envs/gpaw2460/lib/python3.12/site-packages/ase (version 3.23.0)
numpy:  /work/home/ac2uoma125/anaconda3/envs/gpaw2460/lib/python3.12/site-packages/numpy (version 1.26.4)
scipy:  /work/home/ac2uoma125/anaconda3/envs/gpaw2460/lib/python3.12/site-packages/scipy (version 1.14.1)
libxc:  6.2.2
units:  Angstrom and eV
cores: 32
OpenMP: True
OMP_NUM_THREADS: 1

Input parameters:
  eigensolver: {blocksize: 1,
                converge_unocc: False,
                excited_state: True,
                functional: {'name': 'ks'},
                grad_tol_inner_loop: 0.0001,
                grad_tol_pz_localization: 0.0005,
                linesearch_algo: {'name': 'max-step', 'max_step': 0.2},
                localization_tol: None,
                localizationseed: None,
                localizationtype: None,
                max_step_inner_loop: 0.2,
                maxiter_inner_loop: 6,
                maxiter_pz_localization: 50,
                maxiter_unocc: 333,
                momevery: 10,
                name: etdm-fdpw,
                need_init_orbs: False,
                need_localization: False,
                printinnerloop: False,
                restart_canonical: True,
                restartevery_iloop_notconverged: 3,
                searchdir_algo: {'name': 'l-bfgs', 'memory': 3},
                use_prec: True}

Input parameters:
  occupations: {name: mom,
                numbers: [[1. 1. 1. ... 0. 0. 0.]
 [1. 1. 1. ... 0. 0. 0.]],
                update_numbers: True,
                use_fixed_occupations: False,
                use_projections: True}

Excited-state calculation with Maximum Overlap Method
  Gaussian smearing of holes and excited electrons: off

Initialize ...

species:
  C:
    name: Carbon
    id: 4aa54d4b901d75f77cc0ea3eec22967b
    Z: 6.0
    valence: 4
    core: 2
    charge: 0.0
    file: /work/home/ac2uoma125/anaconda3/envs/gpaw2460/share/gpaw/C.PBE.gz
    compensation charges: {type: gauss,
                           rc: 0.20,
                           lmax: 2}
    cutoffs: {filter: 1.14,
              core: 1.14}
    projectors:
      #              energy  rcut
      - 2s(2.00)   -13.751   0.635
      - 2p(2.00)    -5.284   0.635
      -  s          13.461   0.635
      -  p          21.927   0.635
      -  d           0.000   0.635
  
    # Using partial waves for C as LCAO basis

  N:
    name: Nitrogen
    id: f7500608b86eaa90eef8b1d9a670dc53
    Z: 7.0
    valence: 5
    core: 2
    charge: 0.0
    file: /work/home/ac2uoma125/anaconda3/envs/gpaw2460/share/gpaw/N.PBE.gz
    compensation charges: {type: gauss,
                           rc: 0.18,
                           lmax: 2}
    cutoffs: {filter: 1.11,
              core: 0.96}
    projectors:
      #              energy  rcut
      - 2s(2.00)   -18.583   0.603
      - 2p(3.00)    -7.089   0.529
      -  s           8.629   0.603
      -  p          20.123   0.529
      -  d           0.000   0.577
  
    # Using partial waves for N as LCAO basis

Reference energy: -221394.138216  # eV

Spin-polarized calculation.
Magnetic moment: 2.000000

Convergence criteria:
 Maximum [total energy] change in last 3 cyles: 0.0005 eV / valence electron
 Maximum integral of absolute [dens]ity change: 0.0001 electrons / valence electron
 Maximum integral of absolute [eigenst]ate change: 4e-08 eV^2 / valence electron
 Maximum number of scf [iter]ations: 333
 (Square brackets indicate name in SCF output, whereas a 'c' in
 the SCF output indicates the quantity has converged.)

Eigensolver
   Direct minimisation using exponential transformation.
       Search direction: L-BFGS algorithm
       Line search: step size equals one
       Preconditioning: True
       Orbital-density self-interaction corrections: ks
       WARNING: do not use it for metals as occupation numbers are
                not found variationally
 

Density mixing:
  Method: difference
  Backend: no-mixing
  Linear mixing parameter: 0
  old densities: 0
  Damping of long wavelength oscillations: 0 

XC parameters: HYB_GGA_XC_HSE06 + 0.25 * EXX(omega = 0.11 bohr^-1)
  Short-range Coulomb: erfc(omega*r)/r (omega = 0.11 bohr^-1)

Memory estimate:
  Process memory now: 5075.29 MiB
Attribute error: AttributeError("'HybridXC' object has no attribute 'estimate_memory'")
Some object probably lacks estimate_memory() method
Memory breakdown may be incomplete
  Calculator: 5.42 MiB
    Density: 3.82 MiB
      Arrays: 2.16 MiB
      Localized functions: 1.67 MiB
      Mixer: 0.00 MiB
    Hamiltonian: 1.60 MiB
      Arrays: 1.60 MiB

Total number of cores used: 32
Domain decomposition: 4 x 4 x 2

Number of atoms: 215
Number of atomic orbitals: 860
Number of bands in calculation: 444
Number of valence electrons: 862
Bands to converge: occupied

... initialized

Initializing position-dependent things.

Density initialized from wave functions
        .--------C----------------.  
       /|           C             |  
      / | C       C  C C   C      |  
     / C|    C  C    C  C     C   |  
    /  C|C    C C C    C CCC   C  |  
   /    C C C    C C      N CC    |  
  /  C C| CCCCCC  C C C    C CC   |  
 *    C C   CCCCC    C C C    C C |  
 |C    CCC C  CCCCC C  CCCCC   C C|  
 | C C  CCC C    CCC C C  CCC     C  
 |  C C | CCCC C  CCCCC C  CC C   |  
 C   CC C C C C C    CCC C   CC   |  
 |    CCCC C C CCCCC C CCCC C  C  |  
 |     C.CC-C-C-C-CC-C-C-C-C-C----.  
 |  C C/C CCCC   C C CC C C CCC  /   
 |   CC     C CC    C C      C  /    
 |   /C C      CCCC    C C     /     
 |  /    C C      C C      CC /      
 | /C       C        C C     /       
 |/                     C   /        
 C----------------C--------*         

Positions:
   0 C      0.002372    0.002372    0.002372    ( 0.0000,  0.0000,  0.0000)
   1 C     -0.000177    1.774292    1.774292    ( 0.0000,  0.0000,  0.0000)
   2 C      1.774292    1.774292   -0.000177    ( 0.0000,  0.0000,  0.0000)
   3 C      1.774292   -0.000177    1.774292    ( 0.0000,  0.0000,  0.0000)
   4 C      2.660291    0.886016    2.660291    ( 0.0000,  0.0000,  0.0000)
   5 C      0.887932    0.887932    0.887932    ( 0.0000,  0.0000,  0.0000)
   6 C      0.886016    2.660291    2.660291    ( 0.0000,  0.0000,  0.0000)
   7 C      2.660291    2.660291    0.886016    ( 0.0000,  0.0000,  0.0000)
   8 C     -0.001720   -0.001720    3.550221    ( 0.0000,  0.0000,  0.0000)
   9 C     -0.001514    1.772014    5.320396    ( 0.0000,  0.0000,  0.0000)
  10 C      1.772639    1.772639    3.546938    ( 0.0000,  0.0000,  0.0000)
  11 C      1.772014   -0.001514    5.320396    ( 0.0000,  0.0000,  0.0000)
  12 C      2.658540    0.886445    6.206956    ( 0.0000,  0.0000,  0.0000)
  13 C      0.885452    0.885452    4.434520    ( 0.0000,  0.0000,  0.0000)
  14 C      0.886445    2.658540    6.206956    ( 0.0000,  0.0000,  0.0000)
  15 C      2.659334    2.659334    4.433008    ( 0.0000,  0.0000,  0.0000)
  16 C      0.005597    0.005597    7.096195    ( 0.0000,  0.0000,  0.0000)
  17 C      0.000909    1.776657    8.866874    ( 0.0000,  0.0000,  0.0000)
  18 C      1.773012    1.773012    7.093113    ( 0.0000,  0.0000,  0.0000)
  19 C      1.776657    0.000909    8.866874    ( 0.0000,  0.0000,  0.0000)
  20 C      2.662759    0.886233    9.752379    ( 0.0000,  0.0000,  0.0000)
  21 C      0.889792    0.889792    7.980502    ( 0.0000,  0.0000,  0.0000)
  22 C      0.886233    2.662759    9.752379    ( 0.0000,  0.0000,  0.0000)
  23 C      2.657417    2.657417    7.978135    ( 0.0000,  0.0000,  0.0000)
  24 C     -0.001720    3.550221   -0.001720    ( 0.0000,  0.0000,  0.0000)
  25 C     -0.001514    5.320396    1.772014    ( 0.0000,  0.0000,  0.0000)
  26 C      1.772014    5.320396   -0.001514    ( 0.0000,  0.0000,  0.0000)
  27 C      1.772639    3.546938    1.772639    ( 0.0000,  0.0000,  0.0000)
  28 C      2.659334    4.433008    2.659334    ( 0.0000,  0.0000,  0.0000)
  29 C      0.885452    4.434520    0.885452    ( 0.0000,  0.0000,  0.0000)
  30 C      0.886445    6.206956    2.658540    ( 0.0000,  0.0000,  0.0000)
  31 C      2.658540    6.206956    0.886445    ( 0.0000,  0.0000,  0.0000)
  32 C     -0.001669    3.546694    3.546694    ( 0.0000,  0.0000,  0.0000)
  33 C     -0.002583    5.319921    5.319921    ( 0.0000,  0.0000,  0.0000)
  34 C      1.771768    5.319199    3.545991    ( 0.0000,  0.0000,  0.0000)
  35 C      1.771768    3.545991    5.319199    ( 0.0000,  0.0000,  0.0000)
  36 C      2.657674    4.432033    6.205470    ( 0.0000,  0.0000,  0.0000)
  37 C      0.884954    4.433087    4.433087    ( 0.0000,  0.0000,  0.0000)
  38 C      0.883451    6.206763    6.206763    ( 0.0000,  0.0000,  0.0000)
  39 C      2.657674    6.205470    4.432033    ( 0.0000,  0.0000,  0.0000)
  40 C      0.000014    3.545859    7.091609    ( 0.0000,  0.0000,  0.0000)
  41 C     -0.010700    5.330071    8.863338    ( 0.0000,  0.0000,  0.0000)
  42 C      1.771117    5.320902    7.092299    ( 0.0000,  0.0000,  0.0000)
  43 C      1.770943    3.548938    8.865634    ( 0.0000,  0.0000,  0.0000)
  44 C      2.658959    4.434080    9.751333    ( 0.0000,  0.0000,  0.0000)
  45 C      0.881582    4.437692    7.977967    ( 0.0000,  0.0000,  0.0000)
  46 C      0.885071    6.209040    9.751980    ( 0.0000,  0.0000,  0.0000)
  47 C      2.660173    6.206484    7.978018    ( 0.0000,  0.0000,  0.0000)
  48 C      0.005597    7.096195    0.005597    ( 0.0000,  0.0000,  0.0000)
  49 C      0.000909    8.866874    1.776657    ( 0.0000,  0.0000,  0.0000)
  50 C      1.776657    8.866874    0.000909    ( 0.0000,  0.0000,  0.0000)
  51 C      1.773012    7.093113    1.773012    ( 0.0000,  0.0000,  0.0000)
  52 C      2.657417    7.978135    2.657417    ( 0.0000,  0.0000,  0.0000)
  53 C      0.889792    7.980502    0.889792    ( 0.0000,  0.0000,  0.0000)
  54 C      0.886233    9.752379    2.662759    ( 0.0000,  0.0000,  0.0000)
  55 C      2.662759    9.752379    0.886233    ( 0.0000,  0.0000,  0.0000)
  56 C      0.000014    7.091609    3.545859    ( 0.0000,  0.0000,  0.0000)
  57 C     -0.010700    8.863338    5.330071    ( 0.0000,  0.0000,  0.0000)
  58 C      1.770943    8.865634    3.548938    ( 0.0000,  0.0000,  0.0000)
  59 C      1.771117    7.092299    5.320902    ( 0.0000,  0.0000,  0.0000)
  60 C      2.660173    7.978018    6.206484    ( 0.0000,  0.0000,  0.0000)
  61 C      0.881582    7.977967    4.437692    ( 0.0000,  0.0000,  0.0000)
  62 C      0.885071    9.751980    6.209040    ( 0.0000,  0.0000,  0.0000)
  63 C      2.658959    9.751333    4.434080    ( 0.0000,  0.0000,  0.0000)
  64 C     -0.005349    7.094062    7.094062    ( 0.0000,  0.0000,  0.0000)
  65 C      0.007882    8.871270    8.871270    ( 0.0000,  0.0000,  0.0000)
  66 C      1.773973    8.865184    7.093341    ( 0.0000,  0.0000,  0.0000)
  67 C      1.773973    7.093341    8.865184    ( 0.0000,  0.0000,  0.0000)
  68 C      2.662178    7.979334    9.751729    ( 0.0000,  0.0000,  0.0000)
  69 C      0.887169    7.980595    7.980595    ( 0.0000,  0.0000,  0.0000)
  70 C      0.891775    9.755494    9.755494    ( 0.0000,  0.0000,  0.0000)
  71 C      2.662178    9.751729    7.979334    ( 0.0000,  0.0000,  0.0000)
  72 C      3.550221   -0.001720   -0.001720    ( 0.0000,  0.0000,  0.0000)
  73 C      3.546938    1.772639    1.772639    ( 0.0000,  0.0000,  0.0000)
  74 C      5.320396    1.772014   -0.001514    ( 0.0000,  0.0000,  0.0000)
  75 C      5.320396   -0.001514    1.772014    ( 0.0000,  0.0000,  0.0000)
  76 C      6.206956    0.886445    2.658540    ( 0.0000,  0.0000,  0.0000)
  77 C      4.434520    0.885452    0.885452    ( 0.0000,  0.0000,  0.0000)
  78 C      4.433008    2.659334    2.659334    ( 0.0000,  0.0000,  0.0000)
  79 C      6.206956    2.658540    0.886445    ( 0.0000,  0.0000,  0.0000)
  80 C      3.546694   -0.001669    3.546694    ( 0.0000,  0.0000,  0.0000)
  81 C      3.545991    1.771768    5.319199    ( 0.0000,  0.0000,  0.0000)
  82 C      5.319199    1.771768    3.545991    ( 0.0000,  0.0000,  0.0000)
  83 C      5.319921   -0.002583    5.319921    ( 0.0000,  0.0000,  0.0000)
  84 C      6.206763    0.883451    6.206763    ( 0.0000,  0.0000,  0.0000)
  85 C      4.433087    0.884954    4.433087    ( 0.0000,  0.0000,  0.0000)
  86 C      4.432033    2.657674    6.205470    ( 0.0000,  0.0000,  0.0000)
  87 C      6.205470    2.657674    4.432033    ( 0.0000,  0.0000,  0.0000)
  88 C      3.545859    0.000014    7.091609    ( 0.0000,  0.0000,  0.0000)
  89 C      3.548938    1.770943    8.865634    ( 0.0000,  0.0000,  0.0000)
  90 C      5.320902    1.771117    7.092299    ( 0.0000,  0.0000,  0.0000)
  91 C      5.330071   -0.010700    8.863338    ( 0.0000,  0.0000,  0.0000)
  92 C      6.209040    0.885071    9.751980    ( 0.0000,  0.0000,  0.0000)
  93 C      4.437692    0.881582    7.977967    ( 0.0000,  0.0000,  0.0000)
  94 C      4.434080    2.658959    9.751333    ( 0.0000,  0.0000,  0.0000)
  95 C      6.206484    2.660173    7.978018    ( 0.0000,  0.0000,  0.0000)
  96 C      3.546694    3.546694   -0.001669    ( 0.0000,  0.0000,  0.0000)
  97 C      3.545991    5.319199    1.771768    ( 0.0000,  0.0000,  0.0000)
  98 C      5.319921    5.319921   -0.002583    ( 0.0000,  0.0000,  0.0000)
  99 C      5.319199    3.545991    1.771768    ( 0.0000,  0.0000,  0.0000)
 100 C      6.205470    4.432033    2.657674    ( 0.0000,  0.0000,  0.0000)
 101 C      4.433087    4.433087    0.884954    ( 0.0000,  0.0000,  0.0000)
 102 C      4.432033    6.205470    2.657674    ( 0.0000,  0.0000,  0.0000)
 103 C      6.206763    6.206763    0.883451    ( 0.0000,  0.0000,  0.0000)
 104 C      3.546165    3.546165    3.546165    ( 0.0000,  0.0000,  0.0000)
 105 C      3.546493    5.320207    5.320207    ( 0.0000,  0.0000,  0.0000)
 106 C      5.320207    5.320207    3.546493    ( 0.0000,  0.0000,  0.0000)
 107 C      5.320207    3.546493    5.320207    ( 0.0000,  0.0000,  0.0000)
 108 C      6.204957    4.435216    6.204957    ( 0.0000,  0.0000,  0.0000)
 109 C      4.432681    4.432681    4.432681    ( 0.0000,  0.0000,  0.0000)
 110 C      4.435216    6.204957    6.204957    ( 0.0000,  0.0000,  0.0000)
 111 C      6.204957    6.204957    4.435216    ( 0.0000,  0.0000,  0.0000)
 112 C      3.540875    3.540875    7.092749    ( 0.0000,  0.0000,  0.0000)
 113 C      3.546107    5.318967    8.863917    ( 0.0000,  0.0000,  0.0000)
 114 C      5.319652    5.319652    7.095926    ( 0.0000,  0.0000,  0.0000)
 115 C      5.318967    3.546107    8.863917    ( 0.0000,  0.0000,  0.0000)
 116 C      6.209079    4.430145    9.754367    ( 0.0000,  0.0000,  0.0000)
 117 C      4.423602    4.423602    7.973369    ( 0.0000,  0.0000,  0.0000)
 118 C      4.430145    6.209079    9.754367    ( 0.0000,  0.0000,  0.0000)
 119 C      6.145582    6.145582    8.012744    ( 0.0000,  0.0000,  0.0000)
 120 C      3.545859    7.091609    0.000014    ( 0.0000,  0.0000,  0.0000)
 121 C      3.548938    8.865634    1.770943    ( 0.0000,  0.0000,  0.0000)
 122 C      5.330071    8.863338   -0.010700    ( 0.0000,  0.0000,  0.0000)
 123 C      5.320902    7.092299    1.771117    ( 0.0000,  0.0000,  0.0000)
 124 C      6.206484    7.978018    2.660173    ( 0.0000,  0.0000,  0.0000)
 125 C      4.437692    7.977967    0.881582    ( 0.0000,  0.0000,  0.0000)
 126 C      4.434080    9.751333    2.658959    ( 0.0000,  0.0000,  0.0000)
 127 C      6.209040    9.751980    0.885071    ( 0.0000,  0.0000,  0.0000)
 128 C      3.540875    7.092749    3.540875    ( 0.0000,  0.0000,  0.0000)
 129 C      3.546107    8.863917    5.318967    ( 0.0000,  0.0000,  0.0000)
 130 C      5.318967    8.863917    3.546107    ( 0.0000,  0.0000,  0.0000)
 131 C      5.319652    7.095926    5.319652    ( 0.0000,  0.0000,  0.0000)
 132 C      6.145582    8.012744    6.145582    ( 0.0000,  0.0000,  0.0000)
 133 C      4.423602    7.973369    4.423602    ( 0.0000,  0.0000,  0.0000)
 134 C      4.430145    9.754367    6.209079    ( 0.0000,  0.0000,  0.0000)
 135 C      6.209079    9.754367    4.430145    ( 0.0000,  0.0000,  0.0000)
 136 C      3.550030    7.090855    7.090855    ( 0.0000,  0.0000,  0.0000)
 137 C      3.552115    8.861877    8.861877    ( 0.0000,  0.0000,  0.0000)
 138 C      5.332666    8.847031    7.083222    ( 0.0000,  0.0000,  0.0000)
 139 C      5.332666    7.083222    8.847031    ( 0.0000,  0.0000,  0.0000)
 140 C      6.223423    7.971641    9.734620    ( 0.0000,  0.0000,  0.0000)
 141 C      4.440870    7.974370    7.974370    ( 0.0000,  0.0000,  0.0000)
 142 C      4.438713    9.748724    9.748724    ( 0.0000,  0.0000,  0.0000)
 143 C      6.223423    9.734620    7.971641    ( 0.0000,  0.0000,  0.0000)
 144 C      7.096195    0.005597    0.005597    ( 0.0000,  0.0000,  0.0000)
 145 C      7.093113    1.773012    1.773012    ( 0.0000,  0.0000,  0.0000)
 146 C      8.866874    1.776657    0.000909    ( 0.0000,  0.0000,  0.0000)
 147 C      8.866874    0.000909    1.776657    ( 0.0000,  0.0000,  0.0000)
 148 C      9.752379    0.886233    2.662759    ( 0.0000,  0.0000,  0.0000)
 149 C      7.980502    0.889792    0.889792    ( 0.0000,  0.0000,  0.0000)
 150 C      7.978135    2.657417    2.657417    ( 0.0000,  0.0000,  0.0000)
 151 C      9.752379    2.662759    0.886233    ( 0.0000,  0.0000,  0.0000)
 152 C      7.091609    0.000014    3.545859    ( 0.0000,  0.0000,  0.0000)
 153 C      7.092299    1.771117    5.320902    ( 0.0000,  0.0000,  0.0000)
 154 C      8.865634    1.770943    3.548938    ( 0.0000,  0.0000,  0.0000)
 155 C      8.863338   -0.010700    5.330071    ( 0.0000,  0.0000,  0.0000)
 156 C      9.751980    0.885071    6.209040    ( 0.0000,  0.0000,  0.0000)
 157 C      7.977967    0.881582    4.437692    ( 0.0000,  0.0000,  0.0000)
 158 C      7.978018    2.660173    6.206484    ( 0.0000,  0.0000,  0.0000)
 159 C      9.751333    2.658959    4.434080    ( 0.0000,  0.0000,  0.0000)
 160 C      7.094062   -0.005349    7.094062    ( 0.0000,  0.0000,  0.0000)
 161 C      7.093341    1.773973    8.865184    ( 0.0000,  0.0000,  0.0000)
 162 C      8.865184    1.773973    7.093341    ( 0.0000,  0.0000,  0.0000)
 163 C      8.871270    0.007882    8.871270    ( 0.0000,  0.0000,  0.0000)
 164 C      9.755494    0.891775    9.755494    ( 0.0000,  0.0000,  0.0000)
 165 C      7.980595    0.887169    7.980595    ( 0.0000,  0.0000,  0.0000)
 166 C      7.979334    2.662178    9.751729    ( 0.0000,  0.0000,  0.0000)
 167 C      9.751729    2.662178    7.979334    ( 0.0000,  0.0000,  0.0000)
 168 C      7.091609    3.545859    0.000014    ( 0.0000,  0.0000,  0.0000)
 169 C      7.092299    5.320902    1.771117    ( 0.0000,  0.0000,  0.0000)
 170 C      8.863338    5.330071   -0.010700    ( 0.0000,  0.0000,  0.0000)
 171 C      8.865634    3.548938    1.770943    ( 0.0000,  0.0000,  0.0000)
 172 C      9.751333    4.434080    2.658959    ( 0.0000,  0.0000,  0.0000)
 173 C      7.977967    4.437692    0.881582    ( 0.0000,  0.0000,  0.0000)
 174 C      7.978018    6.206484    2.660173    ( 0.0000,  0.0000,  0.0000)
 175 C      9.751980    6.209040    0.885071    ( 0.0000,  0.0000,  0.0000)
 176 C      7.092749    3.540875    3.540875    ( 0.0000,  0.0000,  0.0000)
 177 C      7.095926    5.319652    5.319652    ( 0.0000,  0.0000,  0.0000)
 178 C      8.863917    5.318967    3.546107    ( 0.0000,  0.0000,  0.0000)
 179 C      8.863917    3.546107    5.318967    ( 0.0000,  0.0000,  0.0000)
 180 C      9.754367    4.430145    6.209079    ( 0.0000,  0.0000,  0.0000)
 181 C      7.973369    4.423602    4.423602    ( 0.0000,  0.0000,  0.0000)
 182 C      8.012744    6.145582    6.145582    ( 0.0000,  0.0000,  0.0000)
 183 C      9.754367    6.209079    4.430145    ( 0.0000,  0.0000,  0.0000)
 184 C      7.090855    3.550030    7.090855    ( 0.0000,  0.0000,  0.0000)
 185 C      7.083222    5.332666    8.847031    ( 0.0000,  0.0000,  0.0000)
 186 C      8.847031    5.332666    7.083222    ( 0.0000,  0.0000,  0.0000)
 187 C      8.861877    3.552115    8.861877    ( 0.0000,  0.0000,  0.0000)
 188 C      9.748724    4.438713    9.748724    ( 0.0000,  0.0000,  0.0000)
 189 C      7.974370    4.440870    7.974370    ( 0.0000,  0.0000,  0.0000)
 190 C      7.971641    6.223423    9.734620    ( 0.0000,  0.0000,  0.0000)
 191 C      9.734620    6.223423    7.971641    ( 0.0000,  0.0000,  0.0000)
 192 C      7.094062    7.094062   -0.005349    ( 0.0000,  0.0000,  0.0000)
 193 C      7.093341    8.865184    1.773973    ( 0.0000,  0.0000,  0.0000)
 194 C      8.871270    8.871270    0.007882    ( 0.0000,  0.0000,  0.0000)
 195 C      8.865184    7.093341    1.773973    ( 0.0000,  0.0000,  0.0000)
 196 C      9.751729    7.979334    2.662178    ( 0.0000,  0.0000,  0.0000)
 197 C      7.980595    7.980595    0.887169    ( 0.0000,  0.0000,  0.0000)
 198 C      7.979334    9.751729    2.662178    ( 0.0000,  0.0000,  0.0000)
 199 C      9.755494    9.755494    0.891775    ( 0.0000,  0.0000,  0.0000)
 200 C      7.090855    7.090855    3.550030    ( 0.0000,  0.0000,  0.0000)
 201 C      7.083222    8.847031    5.332666    ( 0.0000,  0.0000,  0.0000)
 202 C      8.861877    8.861877    3.552115    ( 0.0000,  0.0000,  0.0000)
 203 C      8.847031    7.083222    5.332666    ( 0.0000,  0.0000,  0.0000)
 204 C      9.734620    7.971641    6.223423    ( 0.0000,  0.0000,  0.0000)
 205 C      7.974370    7.974370    4.440870    ( 0.0000,  0.0000,  0.0000)
 206 C      7.971641    9.734620    6.223423    ( 0.0000,  0.0000,  0.0000)
 207 C      9.748724    9.748724    4.438713    ( 0.0000,  0.0000,  0.0000)
 208 C      7.136597    8.864770    8.864770    ( 0.0000,  0.0000,  0.0000)
 209 C      8.864770    8.864770    7.136597    ( 0.0000,  0.0000,  0.0000)
 210 C      8.864770    7.136597    8.864770    ( 0.0000,  0.0000,  0.0000)
 211 C      9.766565    7.984371    9.766565    ( 0.0000,  0.0000,  0.0000)
 212 N      8.067138    8.067138    8.067138    ( 0.0000,  0.0000,  2.0000)
 213 C      7.984371    9.766565    9.766565    ( 0.0000,  0.0000,  0.0000)
 214 C      9.766565    9.766565    7.984371    ( 0.0000,  0.0000,  0.0000)

Unit cell:
           periodic     x           y           z      points  spacing
  1. axis:    yes   10.639295    0.000000    0.000000    63     0.1689
  2. axis:    yes    0.000000   10.639295    0.000000    63     0.1689
  3. axis:    yes    0.000000    0.000000   10.639295    63     0.1689

  Lengths:  10.639295  10.639295  10.639295
  Angles:   90.000000  90.000000  90.000000

Effective grid spacing dv^(1/3) = 0.1689

     iter     time        total  log10-change:  magmom         iter
                         energy   eigst   dens             inner loop
iter:   1 17:28:18 -2155.225882   -2.33  -4.58c   +2.0000           7
iter:   2 18:38:45 -2155.271791   -2.75  -6.39c   +2.0000           7
iter:   3 20:19:09 -2155.293335c  -3.09  -5.98c   +2.0000           6
iter:   4 21:29:35 -2155.316068c  -3.55  -6.78c   +2.0000           7
iter:   5 23:00:02 -2155.318318c  -3.76  -5.79c   +2.0000           7
iter:   6 23:59:55 -2155.319807c  -4.13  -6.51c   +2.0000           6
iter:   7 00:59:52 -2155.322637c  -4.24  -5.47c   +2.0000           6
iter:   8 01:49:58 -2155.322667c  -4.18  -6.36c   +2.0000           5
iter:   9 02:51:09 -2155.324058c  -4.48  -6.36c   +2.0000           6
iter:  10 04:01:02 -2155.324290c  -4.57  -7.21c   +2.0000           7
iter:  11 05:00:57 -2155.324602c  -5.17  -6.39c   +2.0000           6
iter:  12 06:00:46 -2155.324697c  -5.41  -6.82c   +2.0000           6
iter:  13 06:50:41 -2155.324806c  -5.37  -7.27c   +2.0000           5
iter:  14 07:50:29 -2155.325067c  -5.21  -6.72c   +2.0000           6
iter:  15 09:00:18 -2155.325309c  -4.83  -6.76c   +2.0000           7
iter:  16 10:10:04 -2155.324893c  -4.74  -5.69c   +2.0000           7
iter:  17 11:19:53 -2155.325822c  -4.65  -6.97c   +2.0000           7
iter:  18 12:29:53 -2155.321868c  -3.21  -4.77c   +2.0000           7
iter:  19 14:39:44 -2155.326943c  -3.80  -6.89c   +2.0000           7
iter:  20 15:39:32 -2155.328813c  -4.17  -6.87c   +2.0000           6
iter:  21 16:40:12 -2155.330350c  -4.37  -6.75c   +2.0000           6
iter:  22 17:40:04 -2155.331309c  -4.44  -6.82c   +2.0000           6
iter:  23 18:40:05 -2155.331891c  -4.46  -6.19c   +2.0000           6
iter:  24 19:50:02 -2155.332610c  -4.77  -7.08c   +2.0000           7
iter:  25 20:59:55 -2155.333037c  -4.69  -7.23c   +2.0000           7
iter:  26 21:49:47 -2155.333112c  -5.11  -6.53c   +2.0000           5
iter:  27 22:39:49 -2155.333096c  -5.59  -6.20c   +2.0000           5
iter:  28 23:29:50 -2155.333220c  -5.85  -6.45c   +2.0000           5
iter:  29 00:19:59 -2155.333289c  -6.18  -6.55c   +2.0000           5
iter:  30 01:19:54 -2155.333413c  -5.99  -7.23c   +2.0000           6
iter:  31 02:10:31 -2155.333542c  -6.23  -6.69c   +2.0000           5
iter:  32 03:00:29 -2155.333631c  -6.57  -6.41c   +2.0000           5
iter:  33 03:50:26 -2155.333517c  -6.80  -6.95c   +2.0000           5
iter:  34 04:50:15 -2155.333197c  -6.85  -6.21c   +2.0000           6
iter:  35 05:40:09 -2155.333414c  -6.93  -6.93c   +2.0000           5
iter:  36 06:30:54 -2155.333442c  -7.31  -7.02c   +2.0000           5
iter:  37 07:00:50 -2155.333439c  -7.72c -7.15c   +2.0000           3

Occupied states converged after 110 e/g evaluations
Unoccupied states are not converged.

Converged after 37 iterations.

Dipole moment: (0.810709, 1.012318, 0.811662) |e|*Ang

Total magnetic moment: (0.000000, 0.000000, 2.000000)
Local magnetic moments:
   0 C  ( 0.000000,  0.000000,  0.000001)
   1 C  ( 0.000000,  0.000000,  0.000014)
   2 C  ( 0.000000,  0.000000,  0.000015)
   3 C  ( 0.000000,  0.000000,  0.000016)
   4 C  ( 0.000000,  0.000000,  0.000493)
   5 C  ( 0.000000,  0.000000,  0.000440)
   6 C  ( 0.000000,  0.000000,  0.000337)
   7 C  ( 0.000000,  0.000000,  0.000338)
   8 C  ( 0.000000,  0.000000, -0.000046)
   9 C  ( 0.000000,  0.000000, -0.000123)
  10 C  ( 0.000000,  0.000000,  0.000039)
  11 C  ( 0.000000,  0.000000, -0.000130)
  12 C  ( 0.000000,  0.000000,  0.001471)
  13 C  ( 0.000000,  0.000000,  0.000148)
  14 C  ( 0.000000,  0.000000,  0.000904)
  15 C  ( 0.000000,  0.000000,  0.000241)
  16 C  ( 0.000000,  0.000000,  0.000709)
  17 C  ( 0.000000,  0.000000, -0.000068)
  18 C  ( 0.000000,  0.000000,  0.001135)
  19 C  ( 0.000000,  0.000000, -0.000033)
  20 C  ( 0.000000,  0.000000,  0.000172)
  21 C  ( 0.000000,  0.000000,  0.000580)
  22 C  ( 0.000000,  0.000000,  0.000178)
  23 C  ( 0.000000,  0.000000,  0.001040)
  24 C  ( 0.000000,  0.000000,  0.000068)
  25 C  ( 0.000000,  0.000000, -0.000126)
  26 C  ( 0.000000,  0.000000, -0.000126)
  27 C  ( 0.000000,  0.000000,  0.000067)
  28 C  ( 0.000000,  0.000000,  0.000212)
  29 C  ( 0.000000,  0.000000,  0.000124)
  30 C  ( 0.000000,  0.000000,  0.000593)
  31 C  ( 0.000000,  0.000000,  0.000595)
  32 C  ( 0.000000,  0.000000, -0.000053)
  33 C  ( 0.000000,  0.000000, -0.000862)
  34 C  ( 0.000000,  0.000000, -0.000076)
  35 C  ( 0.000000,  0.000000, -0.000014)
  36 C  ( 0.000000,  0.000000,  0.000083)
  37 C  ( 0.000000,  0.000000,  0.000893)
  38 C  ( 0.000000,  0.000000,  0.000838)
  39 C  ( 0.000000,  0.000000,  0.000154)
  40 C  ( 0.000000,  0.000000,  0.001498)
  41 C  ( 0.000000,  0.000000, -0.000312)
  42 C  ( 0.000000,  0.000000, -0.000136)
  43 C  ( 0.000000,  0.000000, -0.000030)
  44 C  ( 0.000000,  0.000000,  0.000770)
  45 C  ( 0.000000,  0.000000,  0.000023)
  46 C  ( 0.000000,  0.000000,  0.000120)
  47 C  ( 0.000000,  0.000000,  0.000951)
  48 C  ( 0.000000,  0.000000,  0.000814)
  49 C  ( 0.000000,  0.000000, -0.000044)
  50 C  ( 0.000000,  0.000000, -0.000044)
  51 C  ( 0.000000,  0.000000,  0.000880)
  52 C  ( 0.000000,  0.000000,  0.001761)
  53 C  ( 0.000000,  0.000000,  0.000752)
  54 C  ( 0.000000,  0.000000,  0.000186)
  55 C  ( 0.000000,  0.000000,  0.000185)
  56 C  ( 0.000000,  0.000000, -0.000056)
  57 C  ( 0.000000,  0.000000, -0.000151)
  58 C  ( 0.000000,  0.000000, -0.000088)
  59 C  ( 0.000000,  0.000000, -0.000167)
  60 C  ( 0.000000,  0.000000,  0.000950)
  61 C  ( 0.000000,  0.000000,  0.000139)
  62 C  ( 0.000000,  0.000000,  0.000064)
  63 C  ( 0.000000,  0.000000,  0.001245)
  64 C  ( 0.000000,  0.000000, -0.000541)
  65 C  ( 0.000000,  0.000000, -0.000393)
  66 C  ( 0.000000,  0.000000, -0.000100)
  67 C  ( 0.000000,  0.000000, -0.000090)
  68 C  ( 0.000000,  0.000000,  0.000154)
  69 C  ( 0.000000,  0.000000,  0.000672)
  70 C  ( 0.000000,  0.000000,  0.000762)
  71 C  ( 0.000000,  0.000000,  0.000021)
  72 C  ( 0.000000,  0.000000, -0.000047)
  73 C  ( 0.000000,  0.000000,  0.000039)
  74 C  ( 0.000000,  0.000000, -0.000123)
  75 C  ( 0.000000,  0.000000, -0.000130)
  76 C  ( 0.000000,  0.000000,  0.001473)
  77 C  ( 0.000000,  0.000000,  0.000148)
  78 C  ( 0.000000,  0.000000,  0.000242)
  79 C  ( 0.000000,  0.000000,  0.000908)
  80 C  ( 0.000000,  0.000000, -0.000092)
  81 C  ( 0.000000,  0.000000, -0.000098)
  82 C  ( 0.000000,  0.000000, -0.000098)
  83 C  ( 0.000000,  0.000000, -0.001647)
  84 C  ( 0.000000,  0.000000,  0.001030)
  85 C  ( 0.000000,  0.000000,  0.001433)
  86 C  ( 0.000000,  0.000000,  0.000153)
  87 C  ( 0.000000,  0.000000,  0.000153)
  88 C  ( 0.000000,  0.000000,  0.002434)
  89 C  ( 0.000000,  0.000000, -0.000079)
  90 C  ( 0.000000,  0.000000, -0.000129)
  91 C  ( 0.000000,  0.000000, -0.000546)
  92 C  ( 0.000000,  0.000000,  0.000033)
  93 C  ( 0.000000,  0.000000,  0.000017)
  94 C  ( 0.000000,  0.000000,  0.000675)
  95 C  ( 0.000000,  0.000000,  0.000231)
  96 C  ( 0.000000,  0.000000, -0.000054)
  97 C  ( 0.000000,  0.000000, -0.000076)
  98 C  ( 0.000000,  0.000000, -0.000867)
  99 C  ( 0.000000,  0.000000, -0.000014)
 100 C  ( 0.000000,  0.000000,  0.000082)
 101 C  ( 0.000000,  0.000000,  0.000894)
 102 C  ( 0.000000,  0.000000,  0.000154)
 103 C  ( 0.000000,  0.000000,  0.000839)
 104 C  ( 0.000000,  0.000000,  0.000316)
 105 C  ( 0.000000,  0.000000, -0.000569)
 106 C  ( 0.000000,  0.000000, -0.000564)
 107 C  ( 0.000000,  0.000000, -0.000128)
 108 C  ( 0.000000,  0.000000,  0.003549)
 109 C  ( 0.000000,  0.000000,  0.000585)
 110 C  ( 0.000000,  0.000000,  0.004417)
 111 C  ( 0.000000,  0.000000,  0.004416)
 112 C  ( 0.000000,  0.000000,  0.002350)
 113 C  ( 0.000000,  0.000000, -0.000842)
 114 C  ( 0.000000,  0.000000,  0.001814)
 115 C  ( 0.000000,  0.000000, -0.000804)
 116 C  ( 0.000000,  0.000000,  0.010390)
 117 C  ( 0.000000,  0.000000,  0.010000)
 118 C  ( 0.000000,  0.000000,  0.008604)
 119 C  ( 0.000000,  0.000000,  0.130262)
 120 C  ( 0.000000,  0.000000, -0.000052)
 121 C  ( 0.000000,  0.000000, -0.000089)
 122 C  ( 0.000000,  0.000000, -0.000153)
 123 C  ( 0.000000,  0.000000, -0.000167)
 124 C  ( 0.000000,  0.000000,  0.000946)
 125 C  ( 0.000000,  0.000000,  0.000140)
 126 C  ( 0.000000,  0.000000,  0.001244)
 127 C  ( 0.000000,  0.000000,  0.000064)
 128 C  ( 0.000000,  0.000000,  0.003280)
 129 C  ( 0.000000,  0.000000, -0.001587)
 130 C  ( 0.000000,  0.000000, -0.001586)
 131 C  ( 0.000000,  0.000000, -0.005981)
 132 C  ( 0.000000,  0.000000,  0.303842)
 133 C  ( 0.000000,  0.000000,  0.020435)
 134 C  ( 0.000000,  0.000000,  0.020695)
 135 C  ( 0.000000,  0.000000,  0.020706)
 136 C  ( 0.000000,  0.000000, -0.000936)
 137 C  ( 0.000000,  0.000000, -0.000444)
 138 C  ( 0.000000,  0.000000, -0.009893)
 139 C  ( 0.000000,  0.000000, -0.004658)
 140 C  ( 0.000000,  0.000000,  0.002775)
 141 C  ( 0.000000,  0.000000,  0.004989)
 142 C  ( 0.000000,  0.000000,  0.000069)
 143 C  ( 0.000000,  0.000000,  0.004968)
 144 C  ( 0.000000,  0.000000,  0.000710)
 145 C  ( 0.000000,  0.000000,  0.001137)
 146 C  ( 0.000000,  0.000000, -0.000067)
 147 C  ( 0.000000,  0.000000, -0.000033)
 148 C  ( 0.000000,  0.000000,  0.000172)
 149 C  ( 0.000000,  0.000000,  0.000579)
 150 C  ( 0.000000,  0.000000,  0.001037)
 151 C  ( 0.000000,  0.000000,  0.000177)
 152 C  ( 0.000000,  0.000000,  0.002443)
 153 C  ( 0.000000,  0.000000, -0.000129)
 154 C  ( 0.000000,  0.000000, -0.000078)
 155 C  ( 0.000000,  0.000000, -0.000548)
 156 C  ( 0.000000,  0.000000,  0.000034)
 157 C  ( 0.000000,  0.000000,  0.000017)
 158 C  ( 0.000000,  0.000000,  0.000231)
 159 C  ( 0.000000,  0.000000,  0.000673)
 160 C  ( 0.000000,  0.000000, -0.000886)
 161 C  ( 0.000000,  0.000000, -0.000057)
 162 C  ( 0.000000,  0.000000, -0.000057)
 163 C  ( 0.000000,  0.000000, -0.000379)
 164 C  ( 0.000000,  0.000000,  0.000785)
 165 C  ( 0.000000,  0.000000,  0.000854)
 166 C  ( 0.000000,  0.000000,  0.000085)
 167 C  ( 0.000000,  0.000000,  0.000086)
 168 C  ( 0.000000,  0.000000,  0.001511)
 169 C  ( 0.000000,  0.000000, -0.000135)
 170 C  ( 0.000000,  0.000000, -0.000317)
 171 C  ( 0.000000,  0.000000, -0.000030)
 172 C  ( 0.000000,  0.000000,  0.000767)
 173 C  ( 0.000000,  0.000000,  0.000023)
 174 C  ( 0.000000,  0.000000,  0.000948)
 175 C  ( 0.000000,  0.000000,  0.000121)
 176 C  ( 0.000000,  0.000000,  0.002348)
 177 C  ( 0.000000,  0.000000,  0.001865)
 178 C  ( 0.000000,  0.000000, -0.000837)
 179 C  ( 0.000000,  0.000000, -0.000799)
 180 C  ( 0.000000,  0.000000,  0.010327)
 181 C  ( 0.000000,  0.000000,  0.009950)
 182 C  ( 0.000000,  0.000000,  0.129193)
 183 C  ( 0.000000,  0.000000,  0.008556)
 184 C  ( 0.000000,  0.000000, -0.000696)
 185 C  ( 0.000000,  0.000000, -0.000827)
 186 C  ( 0.000000,  0.000000, -0.000792)
 187 C  ( 0.000000,  0.000000, -0.000221)
 188 C  ( 0.000000,  0.000000,  0.000143)
 189 C  ( 0.000000,  0.000000,  0.003520)
 190 C  ( 0.000000,  0.000000,  0.002241)
 191 C  ( 0.000000,  0.000000,  0.002228)
 192 C  ( 0.000000,  0.000000, -0.000545)
 193 C  ( 0.000000,  0.000000, -0.000099)
 194 C  ( 0.000000,  0.000000, -0.000393)
 195 C  ( 0.000000,  0.000000, -0.000090)
 196 C  ( 0.000000,  0.000000,  0.000154)
 197 C  ( 0.000000,  0.000000,  0.000673)
 198 C  ( 0.000000,  0.000000,  0.000021)
 199 C  ( 0.000000,  0.000000,  0.000762)
 200 C  ( 0.000000,  0.000000, -0.000932)
 201 C  ( 0.000000,  0.000000, -0.009871)
 202 C  ( 0.000000,  0.000000, -0.000442)
 203 C  ( 0.000000,  0.000000, -0.004602)
 204 C  ( 0.000000,  0.000000,  0.002759)
 205 C  ( 0.000000,  0.000000,  0.004984)
 206 C  ( 0.000000,  0.000000,  0.004965)
 207 C  ( 0.000000,  0.000000,  0.000072)
 208 C  ( 0.000000,  0.000000, -0.001760)
 209 C  ( 0.000000,  0.000000, -0.001757)
 210 C  ( 0.000000,  0.000000, -0.000907)
 211 C  ( 0.000000,  0.000000,  0.006424)
 212 N  ( 0.000000,  0.000000,  0.094769)
 213 C  ( 0.000000,  0.000000,  0.006261)
 214 C  ( 0.000000,  0.000000,  0.006262)

Energy contributions relative to reference atoms: (reference = -221394.138216)

Kinetic:       +1744.963291
Potential:     -1572.637113
External:        +0.000000
XC:            -2330.505616
Entropy (-ST):   +0.000000
Local:           +2.845967
SIC:             +0.000000
--------------------------
Free energy:   -2155.333471
Extrapolated:  -2155.333471

HYB_GGA_XC_HSE06 + 0.25 * EXX(omega = 0.11 bohr^-1)
Short-range Coulomb: erfc(omega*r)/r (omega = 0.11 bohr^-1)
Spin contamination: 0.173863 electrons
                   Up                     Down
 Band  Eigenvalues  Occupancy  Eigenvalues  Occupancy
    0    -12.15943    1.00000    -12.14313    1.00000
    1    -11.42304    1.00000    -11.36171    1.00000
    2    -11.02748    1.00000    -11.02348    1.00000
    3    -11.02257    1.00000    -11.01976    1.00000
    4    -10.98832    1.00000    -10.97537    1.00000
    5    -10.95318    1.00000    -10.94859    1.00000
    6    -10.89040    1.00000    -10.87517    1.00000
    7    -10.42666    1.00000    -10.38703    1.00000
    8     -9.94573    1.00000     -9.94120    1.00000
    9     -9.93184    1.00000     -9.92896    1.00000
   10     -9.92480    1.00000     -9.92097    1.00000
   11     -9.91214    1.00000     -9.91017    1.00000
   12     -9.89720    1.00000     -9.89235    1.00000
   13     -9.89132    1.00000     -9.87552    1.00000
   14     -9.87314    1.00000     -9.86853    1.00000
   15     -9.85513    1.00000     -9.85108    1.00000
   16     -9.82509    1.00000     -9.80369    1.00000
   17     -9.77263    1.00000     -9.76059    1.00000
   18     -9.63002    1.00000     -9.60120    1.00000
   19     -9.13846    1.00000     -9.11261    1.00000
   20     -8.81623    1.00000     -8.80499    1.00000
   21     -8.80960    1.00000     -8.80220    1.00000
   22     -8.79011    1.00000     -8.78482    1.00000
   23     -8.78369    1.00000     -8.76232    1.00000
   24     -8.76605    1.00000     -8.75619    1.00000
   25     -8.74332    1.00000     -8.73169    1.00000
   26     -8.58856    1.00000     -8.55866    1.00000
   27     -7.97967    1.00000     -7.94098    1.00000
   28     -7.72242    1.00000     -7.71490    1.00000
   29     -7.71382    1.00000     -7.70739    1.00000
   30     -7.69484    1.00000     -7.67913    1.00000
   31     -7.68117    1.00000     -7.67417    1.00000
   32     -7.62994    1.00000     -7.61923    1.00000
   33     -7.33720    1.00000     -7.29894    1.00000
   34     -6.77694    1.00000     -6.76760    1.00000
   35     -6.77581    1.00000     -6.76608    1.00000
   36     -6.74159    1.00000     -6.73814    1.00000
   37     -6.73088    1.00000     -6.72886    1.00000
   38     -6.72449    1.00000     -6.72137    1.00000
   39     -6.72254    1.00000     -6.71770    1.00000
   40     -6.71171    1.00000     -6.70754    1.00000
   41     -6.70907    1.00000     -6.70599    1.00000
   42     -6.70207    1.00000     -6.69782    1.00000
   43     -6.70145    1.00000     -6.69545    1.00000
   44     -6.69733    1.00000     -6.69485    1.00000
   45     -6.68731    1.00000     -6.68002    1.00000
   46     -6.67952    1.00000     -6.67716    1.00000
   47     -6.66660    1.00000     -6.66467    1.00000
   48     -6.66587    1.00000     -6.65526    1.00000
   49     -6.64048    1.00000     -6.62589    1.00000
   50     -6.63566    1.00000     -6.61999    1.00000
   51     -6.62601    1.00000     -6.61626    1.00000
   52     -6.61468    1.00000     -6.60760    1.00000
   53     -6.60566    1.00000     -6.59682    1.00000
   54     -6.55377    1.00000     -6.51660    1.00000
   55     -6.50515    1.00000     -6.48639    1.00000
   56     -6.35849    1.00000     -6.34066    1.00000
   57     -6.16596    1.00000     -6.15212    1.00000
   58     -5.92845    1.00000     -5.92388    1.00000
   59     -5.92463    1.00000     -5.91839    1.00000
   60     -5.87344    1.00000     -5.86789    1.00000
   61     -5.86482    1.00000     -5.85790    1.00000
   62     -5.86078    1.00000     -5.85389    1.00000
   63     -5.85947    1.00000     -5.84876    1.00000
   64     -5.84809    1.00000     -5.84385    1.00000
   65     -5.84420    1.00000     -5.83925    1.00000
   66     -5.84115    1.00000     -5.83761    1.00000
   67     -5.82370    1.00000     -5.81783    1.00000
   68     -5.82184    1.00000     -5.81502    1.00000
   69     -5.80990    1.00000     -5.80314    1.00000
   70     -5.80904    1.00000     -5.80240    1.00000
   71     -5.80035    1.00000     -5.79112    1.00000
   72     -5.77142    1.00000     -5.76588    1.00000
   73     -5.77079    1.00000     -5.76453    1.00000
   74     -5.73995    1.00000     -5.72774    1.00000
   75     -5.73896    1.00000     -5.72030    1.00000
   76     -5.69396    1.00000     -5.68577    1.00000
   77     -5.68143    1.00000     -5.66238    1.00000
   78     -5.62821    1.00000     -5.53359    1.00000
   79     -5.46756    1.00000     -5.41193    1.00000
   80     -4.84460    1.00000     -4.76501    1.00000
   81     -4.21728    1.00000     -4.19561    1.00000
   82     -4.03649    1.00000     -4.02944    1.00000
   83     -4.03398    1.00000     -4.02844    1.00000
   84     -3.99059    1.00000     -3.97992    1.00000
   85     -3.98007    1.00000     -3.96924    1.00000
   86     -3.96338    1.00000     -3.95262    1.00000
   87     -3.96008    1.00000     -3.95219    1.00000
   88     -3.95788    1.00000     -3.94621    1.00000
   89     -3.93780    1.00000     -3.93199    1.00000
   90     -3.91950    1.00000     -3.87319    1.00000
   91     -3.86124    1.00000     -3.83263    1.00000
   92     -3.50794    1.00000     -3.43229    1.00000
   93     -2.64819    1.00000     -2.62076    1.00000
   94     -2.58588    1.00000     -2.58047    1.00000
   95     -2.57740    1.00000     -2.57051    1.00000
   96     -2.55104    1.00000     -2.54248    1.00000
   97     -2.54521    1.00000     -2.53553    1.00000
   98     -2.50391    1.00000     -2.49506    1.00000
   99     -2.29630    1.00000     -2.25372    1.00000
  100     -2.13103    1.00000     -2.12244    1.00000
  101     -2.11644    1.00000     -2.10584    1.00000
  102     -2.03611    1.00000     -2.03309    1.00000
  103     -2.02589    1.00000     -2.02445    1.00000
  104     -2.02475    1.00000     -2.02270    1.00000
  105     -2.02371    1.00000     -2.01436    1.00000
  106     -2.01576    1.00000     -2.01391    1.00000
  107     -2.01557    1.00000     -2.01098    1.00000
  108     -2.00029    1.00000     -1.99810    1.00000
  109     -1.99636    1.00000     -1.99060    1.00000
  110     -1.99305    1.00000     -1.98878    1.00000
  111     -1.97443    1.00000     -1.97157    1.00000
  112     -1.96192    1.00000     -1.95122    1.00000
  113     -1.95376    1.00000     -1.94899    1.00000
  114     -1.91611    1.00000     -1.90340    1.00000
  115     -1.90705    1.00000     -1.88631    1.00000
  116     -1.89054    1.00000     -1.88151    1.00000
  117     -1.87933    1.00000     -1.86693    1.00000
  118     -1.86253    1.00000     -1.85601    1.00000
  119     -1.86156    1.00000     -1.82598    1.00000
  120     -1.83765    1.00000     -1.82567    1.00000
  121     -1.79728    1.00000     -1.78255    1.00000
  122     -1.77831    1.00000     -1.77276    1.00000
  123     -1.75646    1.00000     -1.74808    1.00000
  124     -1.74540    1.00000     -1.74048    1.00000
  125     -1.73622    1.00000     -1.72792    1.00000
  126     -1.72095    1.00000     -1.71538    1.00000
  127     -1.71295    1.00000     -1.70770    1.00000
  128     -1.70898    1.00000     -1.70432    1.00000
  129     -1.70368    1.00000     -1.69869    1.00000
  130     -1.70301    1.00000     -1.69287    1.00000
  131     -1.69818    1.00000     -1.68452    1.00000
  132     -1.68947    1.00000     -1.68282    1.00000
  133     -1.67767    1.00000     -1.67174    1.00000
  134     -1.67039    1.00000     -1.66395    1.00000
  135     -1.66032    1.00000     -1.64750    1.00000
  136     -1.65335    1.00000     -1.64118    1.00000
  137     -1.65232    1.00000     -1.64001    1.00000
  138     -1.63736    1.00000     -1.61875    1.00000
  139     -1.62240    1.00000     -1.61173    1.00000
  140     -1.60769    1.00000     -1.60257    1.00000
  141     -1.59982    1.00000     -1.58400    1.00000
  142     -1.57990    1.00000     -1.54803    1.00000
  143     -1.39580    1.00000     -1.36753    1.00000
  144     -1.29254    1.00000     -1.21323    1.00000
  145     -1.22537    1.00000     -1.18377    1.00000
  146     -0.85766    1.00000     -0.82605    1.00000
  147     -0.59616    1.00000     -0.57960    1.00000
  148     -0.58201    1.00000     -0.57286    1.00000
  149     -0.57992    1.00000     -0.55486    1.00000
  150     -0.53180    1.00000     -0.52528    1.00000
  151     -0.52211    1.00000     -0.51732    1.00000
  152     -0.51396    1.00000     -0.50842    1.00000
  153     -0.49999    1.00000     -0.49139    1.00000
  154     -0.48009    1.00000     -0.47227    1.00000
  155     -0.47778    1.00000     -0.47096    1.00000
  156     -0.37477    1.00000     -0.28321    1.00000
  157     -0.28112    1.00000     -0.22333    1.00000
  158      0.67863    1.00000      0.79980    1.00000
  159      1.11222    1.00000      1.12986    1.00000
  160      1.12702    1.00000      1.14055    1.00000
  161      1.15816    1.00000      1.17918    1.00000
  162      1.22960    1.00000      1.24728    1.00000
  163      1.25552    1.00000      1.26523    1.00000
  164      1.26079    1.00000      1.26666    1.00000
  165      1.26209    1.00000      1.26752    1.00000
  166      1.26753    1.00000      1.27135    1.00000
  167      1.27350    1.00000      1.27694    1.00000
  168      1.28035    1.00000      1.29101    1.00000
  169      1.28895    1.00000      1.29389    1.00000
  170      1.28980    1.00000      1.29420    1.00000
  171      1.30873    1.00000      1.31224    1.00000
  172      1.31328    1.00000      1.31703    1.00000
  173      1.32576    1.00000      1.33511    1.00000
  174      1.33873    1.00000      1.35061    1.00000
  175      1.43078    1.00000      1.45224    1.00000
  176      1.44071    1.00000      1.46262    1.00000
  177      1.44384    1.00000      1.46794    1.00000
  178      1.46549    1.00000      1.48954    1.00000
  179      1.78695    1.00000      1.80263    1.00000
  180      1.79387    1.00000      1.80616    1.00000
  181      1.82955    1.00000      1.86980    1.00000
  182      1.92148    1.00000      1.92579    1.00000
  183      1.92172    1.00000      1.92692    1.00000
  184      1.92502    1.00000      1.92972    1.00000
  185      1.92602    1.00000      1.93896    1.00000
  186      1.93650    1.00000      1.94364    1.00000
  187      1.93693    1.00000      1.94658    1.00000
  188      1.94324    1.00000      1.94698    1.00000
  189      1.94976    1.00000      1.95630    1.00000
  190      1.95458    1.00000      1.96081    1.00000
  191      1.96164    1.00000      1.96739    1.00000
  192      1.96498    1.00000      1.97596    1.00000
  193      1.96951    1.00000      1.97967    1.00000
  194      1.97278    1.00000      1.98996    1.00000
  195      1.98699    1.00000      1.99683    1.00000
  196      2.00391    1.00000      2.01595    1.00000
  197      2.00759    1.00000      2.01773    1.00000
  198      2.03094    1.00000      2.04401    1.00000
  199      2.03961    1.00000      2.04845    1.00000
  200      2.19858    1.00000      2.29233    1.00000
  201      2.29978    1.00000      2.35611    1.00000
  202      2.81086    1.00000      2.82688    1.00000
  203      2.82377    1.00000      2.84043    1.00000
  204      2.85338    1.00000      2.89226    1.00000
  205      2.94468    1.00000      2.94815    1.00000
  206      2.94961    1.00000      2.95513    1.00000
  207      2.95125    1.00000      2.95557    1.00000
  208      2.95884    1.00000      2.96264    1.00000
  209      2.95898    1.00000      2.96274    1.00000
  210      2.96333    1.00000      2.96503    1.00000
  211      2.97468    1.00000      2.97669    1.00000
  212      2.98352    1.00000      2.98659    1.00000
  213      2.98694    1.00000      2.99210    1.00000
  214      3.00339    1.00000      3.00812    1.00000
  215      3.00619    1.00000      3.01183    1.00000
  216      3.04820    1.00000      3.05710    1.00000
  217      3.06695    1.00000      3.07649    1.00000
  218      3.07495    1.00000      3.08112    1.00000
  219      3.07855    1.00000      3.09555    1.00000
  220      3.08976    1.00000      3.10041    1.00000
  221      3.09576    1.00000      3.11917    1.00000
  222      3.14107    1.00000      3.15354    1.00000
  223      3.14813    1.00000      3.16946    1.00000
  224      3.19304    1.00000      3.21093    1.00000
  225      3.20144    1.00000      3.21447    1.00000
  226      3.24520    1.00000      3.29616    1.00000
  227      3.39693    1.00000      3.41096    1.00000
  228      3.41030    1.00000      3.42051    1.00000
  229      3.48344    1.00000      3.50341    1.00000
  230      3.52799    1.00000      3.53215    1.00000
  231      3.52993    1.00000      3.53525    1.00000
  232      3.54302    1.00000      3.55422    1.00000
  233      3.54940    1.00000      3.55797    1.00000
  234      3.56001    1.00000      3.56535    1.00000
  235      3.56059    1.00000      3.56661    1.00000
  236      3.56512    1.00000      3.57215    1.00000
  237      3.56663    1.00000      3.58424    1.00000
  238      3.58021    1.00000      3.58520    1.00000
  239      3.58074    1.00000      3.59195    1.00000
  240      3.58315    1.00000      3.59473    1.00000
  241      3.58883    1.00000      3.59718    1.00000
  242      3.59825    1.00000      3.60747    1.00000
  243      3.60026    1.00000      3.61383    1.00000
  244      3.60583    1.00000      3.62570    1.00000
  245      3.61459    1.00000      3.63276    1.00000
  246      3.62811    1.00000      3.63397    1.00000
  247      3.62879    1.00000      3.64585    1.00000
  248      3.64225    1.00000      3.65183    1.00000
  249      3.64640    1.00000      3.65230    1.00000
  250      3.65848    1.00000      3.67040    1.00000
  251      3.68575    1.00000      3.71050    1.00000
  252      3.70346    1.00000      3.73095    1.00000
  253      3.97986    1.00000      4.04323    1.00000
  254      4.04774    1.00000      4.12166    1.00000
  255      4.07939    1.00000      4.12577    1.00000
  256      4.59415    1.00000      4.60804    1.00000
  257      4.59715    1.00000      4.60933    1.00000
  258      4.67131    1.00000      4.69068    1.00000
  259      4.67976    1.00000      4.70239    1.00000
  260      4.70991    1.00000      4.74112    1.00000
  261      4.72612    1.00000      4.74246    1.00000
  262      4.79476    1.00000      4.91516    1.00000
  263      5.15123    1.00000      5.18178    1.00000
  264      5.17854    1.00000      5.19599    1.00000
  265      5.26727    1.00000      5.28253    1.00000
  266      5.28733    1.00000      5.29258    1.00000
  267      5.28843    1.00000      5.29609    1.00000
  268      5.30532    1.00000      5.31214    1.00000
  269      5.31227    1.00000      5.32203    1.00000
  270      5.32161    1.00000      5.32693    1.00000
  271      5.32792    1.00000      5.35922    1.00000
  272      5.39498    1.00000      5.41908    1.00000
  273      5.41258    1.00000      5.42772    1.00000
  274      5.55202    1.00000      5.56420    1.00000
  275      5.56023    1.00000      5.57366    1.00000
  276      5.66890    1.00000      5.71857    1.00000
  277      5.73615    1.00000      5.75225    1.00000
  278      5.74376    1.00000      5.75301    1.00000
  279      5.74425    1.00000      5.75794    1.00000
  280      5.75061    1.00000      5.77155    1.00000
  281      5.76023    1.00000      5.77228    1.00000
  282      5.76617    1.00000      5.78468    1.00000
  283      5.79492    1.00000      5.80554    1.00000
  284      5.82057    1.00000      5.83550    1.00000
  285      5.82827    1.00000      5.83875    1.00000
  286      5.83511    1.00000      5.85789    1.00000
  287      5.94131    1.00000      5.95849    1.00000
  288      5.97545    1.00000      5.99038    1.00000
  289      6.00077    1.00000      6.00707    1.00000
  290      6.02738    1.00000      6.03177    1.00000
  291      6.03329    1.00000      6.03871    1.00000
  292      6.03407    1.00000      6.03922    1.00000
  293      6.04920    1.00000      6.05303    1.00000
  294      6.04975    1.00000      6.05455    1.00000
  295      6.05461    1.00000      6.06186    1.00000
  296      6.05917    1.00000      6.06415    1.00000
  297      6.06248    1.00000      6.06633    1.00000
  298      6.07093    1.00000      6.07361    1.00000
  299      6.07467    1.00000      6.07720    1.00000
  300      6.07652    1.00000      6.08165    1.00000
  301      6.08099    1.00000      6.08792    1.00000
  302      6.10932    1.00000      6.11459    1.00000
  303      6.11124    1.00000      6.12311    1.00000
  304      6.12344    1.00000      6.13414    1.00000
  305      6.12655    1.00000      6.14109    1.00000
  306      6.13327    1.00000      6.14172    1.00000
  307      6.13980    1.00000      6.14938    1.00000
  308      6.14051    1.00000      6.15365    1.00000
  309      6.15040    1.00000      6.16492    1.00000
  310      6.19742    1.00000      6.20609    1.00000
  311      6.21099    1.00000      6.21974    1.00000
  312      6.23869    1.00000      6.25124    1.00000
  313      6.26805    1.00000      6.27355    1.00000
  314      6.27031    1.00000      6.27535    1.00000
  315      6.27430    1.00000      6.27586    1.00000
  316      6.27448    1.00000      6.28288    1.00000
  317      6.27928    1.00000      6.28487    1.00000
  318      6.28246    1.00000      6.28765    1.00000
  319      6.28677    1.00000      6.29288    1.00000
  320      6.28851    1.00000      6.30014    1.00000
  321      6.29467    1.00000      6.30055    1.00000
  322      6.29708    1.00000      6.30671    1.00000
  323      6.30180    1.00000      6.30986    1.00000
  324      6.30861    1.00000      6.31723    1.00000
  325      6.31525    1.00000      6.32366    1.00000
  326      6.32336    1.00000      6.32989    1.00000
  327      6.32609    1.00000      6.33069    1.00000
  328      6.32984    1.00000      6.33505    1.00000
  329      6.33079    1.00000      6.33549    1.00000
  330      6.33560    1.00000      6.34273    1.00000
  331      6.33822    1.00000      6.35243    1.00000
  332      6.34474    1.00000      6.35422    1.00000
  333      6.34758    1.00000      6.35588    1.00000
  334      6.35009    1.00000      6.36470    1.00000
  335      6.35252    1.00000      6.36570    1.00000
  336      6.36374    1.00000      6.37030    1.00000
  337      6.36726    1.00000      6.37524    1.00000
  338      6.37549    1.00000      6.37890    1.00000
  339      6.37908    1.00000      6.39614    1.00000
  340      6.38591    1.00000      6.40254    1.00000
  341      6.39367    1.00000      6.41084    1.00000
  342      6.41011    1.00000      6.41788    1.00000
  343      6.41379    1.00000      6.42235    1.00000
  344      6.42111    1.00000      6.43053    1.00000
  345      6.43760    1.00000      6.45917    1.00000
  346      6.44226    1.00000      6.46791    1.00000
  347      6.45510    1.00000      6.47697    1.00000
  348      6.46956    1.00000      6.49809    1.00000
  349      6.49280    1.00000      6.50669    1.00000
  350      6.49922    1.00000      6.51522    1.00000
  351      6.50484    1.00000      6.53424    1.00000
  352      6.55049    1.00000      6.57201    1.00000
  353      6.64376    1.00000      6.68139    1.00000
  354      6.65522    1.00000      6.70008    1.00000
  355      6.89055    1.00000      6.92748    1.00000
  356      6.91337    1.00000      6.94310    1.00000
  357      6.92539    1.00000      6.94599    1.00000
  358      7.09415    1.00000      7.10422    1.00000
  359      7.09571    1.00000      7.10426    1.00000
  360      7.17087    1.00000      7.17638    1.00000
  361      7.17199    1.00000      7.17782    1.00000
  362      7.18003    1.00000      7.18333    1.00000
  363      7.18469    1.00000      7.18714    1.00000
  364      7.20214    1.00000      7.21728    1.00000
  365      7.20505    1.00000      7.22297    1.00000
  366      7.22018    1.00000      7.22753    1.00000
  367      7.22197    1.00000      7.22857    1.00000
  368      7.23737    1.00000      7.24468    1.00000
  369      7.23964    1.00000      7.25461    1.00000
  370      7.25348    1.00000      7.26737    1.00000
  371      7.25938    1.00000      7.27759    1.00000
  372      7.27335    1.00000      7.28211    1.00000
  373      7.28850    1.00000      7.30082    1.00000
  374      7.29277    1.00000      7.31728    1.00000
  375      7.30602    1.00000      7.31954    1.00000
  376      7.30888    1.00000      7.34559    1.00000
  377      7.39292    1.00000      7.43073    1.00000
  378      7.44939    1.00000      7.48924    1.00000
  379      7.93443    1.00000      8.10031    1.00000
  380      8.19903    1.00000      8.35335    1.00000
  381      8.28846    1.00000      8.36341    1.00000
  382      8.50548    1.00000      8.71919    1.00000
  383      8.69391    1.00000      8.72680    1.00000
  384      8.70947    1.00000      8.76931    1.00000
  385      8.77428    1.00000      8.78217    1.00000
  386      8.78340    1.00000      8.78986    1.00000
  387      8.78845    1.00000      8.79530    1.00000
  388      8.79094    1.00000      8.81447    1.00000
  389      8.81075    1.00000      8.82874    1.00000
  390      8.82686    1.00000      8.83877    1.00000
  391      8.82779    1.00000      8.85745    1.00000
  392      8.87497    1.00000      8.88006    1.00000
  393      8.87513    1.00000      8.88336    1.00000
  394      8.90293    1.00000      8.91310    1.00000
  395      8.95785    1.00000      8.96355    1.00000
  396      8.96736    1.00000      8.97298    1.00000
  397      9.02017    1.00000      9.03432    1.00000
  398      9.03108    1.00000      9.04073    1.00000
  399      9.03366    1.00000      9.04137    1.00000
  400      9.04133    1.00000      9.05034    1.00000
  401      9.04397    1.00000      9.05987    1.00000
  402      9.05336    1.00000      9.06719    1.00000
  403      9.05704    1.00000      9.06756    1.00000
  404      9.06844    1.00000      9.07750    1.00000
  405      9.07007    1.00000      9.09246    1.00000
  406      9.08464    1.00000      9.10152    1.00000
  407      9.10382    1.00000      9.11305    1.00000
  408      9.12024    1.00000      9.13503    1.00000
  409      9.14225    1.00000      9.16437    1.00000
  410      9.15485    1.00000      9.17062    1.00000
  411      9.16102    1.00000      9.17890    1.00000
  412      9.16395    1.00000      9.18034    1.00000
  413      9.59629    1.00000      9.77740    1.00000
  414      9.77446    1.00000      9.82979    1.00000
  415      9.80169    1.00000      9.84322    1.00000
  416      9.86236    1.00000     10.03833    1.00000
  417     10.02306    1.00000     10.04304    1.00000
  418     10.03331    1.00000     10.06103    1.00000
  419     10.05701    1.00000     10.08981    1.00000
  420     10.08137    1.00000     10.09045    1.00000
  421     10.08401    1.00000     10.09788    1.00000
  422     10.08933    1.00000     10.15364    1.00000
  423     10.13983    1.00000     10.18022    1.00000
  424     10.15449    1.00000     10.20631    1.00000
  425     10.18232    1.00000     10.40549    1.00000
  426     11.09891    1.00000     11.48233    1.00000
  427     11.43542    1.00000     11.50004    1.00000
  428     11.44878    1.00000     11.51919    1.00000
  429     11.86326    1.00000     13.71733    0.00000
  430     13.28491    1.00000     15.36516    1.00000
  431     14.11547    1.00000     16.09411    0.00000
  432     17.04656    0.00000     17.05192    0.00000
  433     17.05328    0.00000     17.05676    0.00000
  434     17.06049    0.00000     17.07756    0.00000
  435     17.10289    0.00000     17.11758    0.00000
  436     17.10912    0.00000     17.12171    0.00000
  437     17.12865    0.00000     17.14043    0.00000
  438     17.61905    0.00000     17.63018    0.00000
  439     17.69574    0.00000     17.70218    0.00000
  440     17.69587    0.00000     17.70410    0.00000
  441     17.71410    0.00000     17.71845    0.00000
  442     17.71700    0.00000     17.72459    0.00000
  443     17.78970    0.00000     17.80468    0.00000

Fermi level: inf

Could not find a gap
Writing to nv-triplet-excited.gpw (mode='all')

Timing:                                      incl.     excl.
-------------------------------------------------------------------
Density initialized from wave functions:     1.259     1.259   0.0% |
 Symmetrize density:                         0.000     0.000   0.0% |
Hamiltonian:                                 3.968     0.013   0.0% |
 Atomic:                                     2.067     0.009   0.0% |
  XC Correction:                             2.058     2.058   0.0% |
 Calculate atomic Hamiltonians:              0.551     0.551   0.0% |
 Communicate:                                0.438     0.438   0.0% |
 Poisson:                                    0.002     0.002   0.0% |
 XC 3D grid:                                 0.897     0.897   0.0% |
PWDescriptor:                                0.234     0.234   0.0% |
Redistribute:                                0.006     0.006   0.0% |
SCF-cycle:                               149603.833    10.683   0.0% |
 Apply H:                                 1970.052  1970.040   1.3% ||
  HMM T:                                     0.012     0.012   0.0% |
 Density:                                    1.258     0.000   0.0% |
  Atomic density matrices:                   0.037     0.037   0.0% |
  Mix:                                       0.895     0.895   0.0% |
  Multipole moments:                         0.001     0.001   0.0% |
  Pseudo density:                            0.326     0.326   0.0% |
   Symmetrize density:                       0.000     0.000   0.0% |
 Direct Minimisation step:               145842.258    41.062   0.0% |
  Apply H:                                2513.947  2513.929   1.7% ||
   HMM T:                                    0.018     0.018   0.0% |
  Density:                                   2.547     0.000   0.0% |
   Atomic density matrices:                  0.072     0.072   0.0% |
   Mix:                                      1.784     1.784   0.0% |
   Multipole moments:                        0.001     0.001   0.0% |
   Pseudo density:                           0.690     0.689   0.0% |
    Symmetrize density:                      0.000     0.000   0.0% |
  Get Search Direction:                     25.807    25.807   0.0% |
  Gradient unoccupied orbitals:           1537.805     3.862   0.0% |
   Apply H:                               1533.297  1533.288   1.0% |
    HMM T:                                   0.009     0.009   0.0% |
   Orthonormalize:                           0.646     0.001   0.0% |
    calc_s_matrix:                           0.048     0.048   0.0% |
    inverse-cholesky:                        0.053     0.053   0.0% |
    projections:                             0.471     0.471   0.0% |
    rotate_psi_s:                            0.074     0.074   0.0% |
  Hamiltonian:                               8.050     0.025   0.0% |
   Atomic:                                   4.123     0.006   0.0% |
    XC Correction:                           4.116     4.116   0.0% |
   Calculate atomic Hamiltonians:            1.100     1.100   0.0% |
   Communicate:                              0.881     0.881   0.0% |
   New Kinetic Energy:                       0.167     0.167   0.0% |
   Poisson:                                  0.002     0.002   0.0% |
   XC 3D grid:                               1.752     1.752   0.0% |
  Inner loop:                            141684.483   222.689   0.1% |
   Energy and gradients:                 140623.959     0.677   0.0% |
    Unitary gradients:                     127.635   127.635   0.1% |
    e/g grid calculations:               140495.646   123.409   0.1% |
     Apply H:                            140372.237 140371.321  93.8% |-------------------------------------|
      HMM T:                                 0.916     0.916   0.0% |
   Unitary matrix:                         104.718   104.718   0.1% |
   Update Kohn-Sham energy:                733.117   110.793   0.1% |
    Density:                               148.088     0.007   0.0% |
     Atomic density matrices:                4.154     4.154   0.0% |
     Mix:                                  104.700   104.700   0.1% |
     Multipole moments:                      0.071     0.071   0.0% |
     Pseudo density:                        39.156    39.152   0.0% |
      Symmetrize density:                    0.004     0.004   0.0% |
    Hamiltonian:                           474.236     1.450   0.0% |
     Atomic:                               242.408     0.397   0.0% |
      XC Correction:                       242.010   242.010   0.2% |
     Calculate atomic Hamiltonians:         65.054    65.054   0.0% |
     Communicate:                           52.467    52.467   0.0% |
     New Kinetic Energy:                     9.635     9.635   0.0% |
     Poisson:                                0.103     0.103   0.0% |
     XC 3D grid:                           103.119   103.119   0.1% |
  Orthonormalize:                           26.663     0.020   0.0% |
   Orthonormalize:                           0.656     0.001   0.0% |
    calc_s_matrix:                           0.050     0.050   0.0% |
    inverse-cholesky:                        0.052     0.052   0.0% |
    projections:                             0.479     0.479   0.0% |
    rotate_psi_s:                            0.073     0.073   0.0% |
   calc_s_matrix:                            1.904     1.904   0.0% |
   inverse-cholesky:                         2.169     2.169   0.0% |
   projections:                             19.020    19.020   0.0% |
   rotate_psi_s:                             2.894     2.894   0.0% |
  projections:                               1.892     1.892   0.0% |
 Hamiltonian:                                4.022     0.012   0.0% |
  Atomic:                                    2.056     0.003   0.0% |
   XC Correction:                            2.053     2.053   0.0% |
  Calculate atomic Hamiltonians:             0.551     0.551   0.0% |
  Communicate:                               0.448     0.448   0.0% |
  New Kinetic Energy:                        0.081     0.081   0.0% |
  Poisson:                                   0.001     0.001   0.0% |
  XC 3D grid:                                0.873     0.873   0.0% |
 Orthonormalize:                             0.648     0.000   0.0% |
  Orthonormalize:                            0.648     0.000   0.0% |
   calc_s_matrix:                            0.048     0.048   0.0% |
   inverse-cholesky:                         0.053     0.053   0.0% |
   projections:                              0.472     0.472   0.0% |
   rotate_psi_s:                             0.074     0.074   0.0% |
 Subspace diag:                           1773.973     0.001   0.0% |
  calc_h_matrix:                          1773.355     0.266   0.0% |
   Apply H:                               1773.089  1773.075   1.2% |
    HMM T:                                   0.014     0.014   0.0% |
  diagonalize:                               0.398     0.398   0.0% |
  rotate_psi:                                0.219     0.219   0.0% |
 projections:                                0.941     0.941   0.0% |
Set symmetry:                                0.000     0.000   0.0% |
Other:                                       5.577     5.577   0.0% |
-------------------------------------------------------------------
Total:                                             149614.878 100.0%

Memory usage: 5.17 GiB
Date: Fri Sep 27 07:10:49 2024
