
  ___ ___ ___ _ _ _  
 |   |   |_  | | | | 
 | | | | | . | | | | 
 |__ |  _|___|_____|  24.6.0
 |___|_|             

User:   ac2uoma125@k02r4n04
Date:   Fri Sep 27 15:19:19 2024
Arch:   x86_64
Pid:    12393
CWD:    /work/home/ac2uoma125/gpaw/hse06_nvcenter_215/tri_es_relax
Python: 3.12.5
gpaw:   /work/home/ac2uoma125/anaconda3/envs/gpaw2460/lib/python3.12/site-packages/gpaw
_gpaw:  /work/home/ac2uoma125/anaconda3/envs/gpaw2460/lib/python3.12/site-packages/
        _gpaw.cpython-312-x86_64-linux-gnu.so
ase:    /work/home/ac2uoma125/anaconda3/envs/gpaw2460/lib/python3.12/site-packages/ase (version 3.23.0)
numpy:  /work/home/ac2uoma125/anaconda3/envs/gpaw2460/lib/python3.12/site-packages/numpy (version 1.26.4)
scipy:  /work/home/ac2uoma125/anaconda3/envs/gpaw2460/lib/python3.12/site-packages/scipy (version 1.14.1)
libxc:  6.2.2
units:  Angstrom and eV
cores: 32
OpenMP: True
OMP_NUM_THREADS: 1

Reading from ../tri_es/nv-triplet-excited.gpw
Read dipole, energy, free_energy, magmom, magmoms
Reading input parameters:
  charge: -1
  eigensolver: {blocksize: 1,
                converge_unocc: False,
                excited_state: True,
                functional: {'name': 'ks'},
                grad_tol_inner_loop: 0.0001,
                grad_tol_pz_localization: 0.0005,
                linesearch_algo: {'name': 'max-step', 'max_step': 0.2},
                localization_tol: None,
                localizationseed: None,
                localizationtype: None,
                max_step_inner_loop: 0.2,
                maxiter_inner_loop: 6,
                maxiter_pz_localization: 50,
                maxiter_unocc: 333,
                momevery: 10,
                name: etdm-fdpw,
                need_init_orbs: False,
                need_localization: False,
                printinnerloop: False,
                restart_canonical: True,
                restartevery_iloop_notconverged: 3,
                searchdir_algo: {'name': 'l-bfgs', 'memory': 3},
                use_prec: True}
  mixer: {backend: no-mixing}
  mode: {ecut: 600.0,
         name: pw}
  nbands: -12
  occupations: {name: mom,
                numbers: [[1. 1. 1. ... 0. 0. 0.]
 [1. 1. 1. ... 0. 0. 0.]],
                update_numbers: True,
                use_fixed_occupations: False,
                use_projections: True}
  spinpol: True
  symmetry: off
  xc: HSE06

Initialize ...

species:
  C:
    name: Carbon
    id: 4aa54d4b901d75f77cc0ea3eec22967b
    Z: 6.0
    valence: 4
    core: 2
    charge: 0.0
    file: /work/home/ac2uoma125/anaconda3/envs/gpaw2460/share/gpaw/C.PBE.gz
    compensation charges: {type: gauss,
                           rc: 0.20,
                           lmax: 2}
    cutoffs: {filter: 1.14,
              core: 1.14}
    projectors:
      #              energy  rcut
      - 2s(2.00)   -13.751   0.635
      - 2p(2.00)    -5.284   0.635
      -  s          13.461   0.635
      -  p          21.927   0.635
      -  d           0.000   0.635
  
    # Using partial waves for C as LCAO basis

  N:
    name: Nitrogen
    id: f7500608b86eaa90eef8b1d9a670dc53
    Z: 7.0
    valence: 5
    core: 2
    charge: 0.0
    file: /work/home/ac2uoma125/anaconda3/envs/gpaw2460/share/gpaw/N.PBE.gz
    compensation charges: {type: gauss,
                           rc: 0.18,
                           lmax: 2}
    cutoffs: {filter: 1.11,
              core: 0.96}
    projectors:
      #              energy  rcut
      - 2s(2.00)   -18.583   0.603
      - 2p(3.00)    -7.089   0.529
      -  s           8.629   0.603
      -  p          20.123   0.529
      -  d           0.000   0.577
  
    # Using partial waves for N as LCAO basis

Reference energy: -221394.138216  # eV

Spin-polarized calculation.
Magnetic moment: 2.000000

Convergence criteria:
 Maximum [total energy] change in last 3 cyles: 0.0005 eV / valence electron
 Maximum integral of absolute [dens]ity change: 0.0001 electrons / valence electron
 Maximum integral of absolute [eigenst]ate change: 4e-08 eV^2 / valence electron
 Maximum number of scf [iter]ations: 333
 (Square brackets indicate name in SCF output, whereas a 'c' in
 the SCF output indicates the quantity has converged.)

Symmetries present (total): 1

  ( 1  0  0)
  ( 0  1  0)
  ( 0  0  1)

1 k-point (Gamma)
1 k-point in the irreducible part of the Brillouin zone
       k-points in crystal coordinates                weights
   0:     0.00000000    0.00000000    0.00000000          1/1

Wave functions: Plane wave expansion
  Cutoff energy: 600.000 eV
  Number of coefficients: 40243 (reduced to 20122)
  Pulay-stress correction: 0.000000 eV/Ang^3 (de/decut=0.000000)
  Using FFTW library
  ScaLapack parameters: grid=1x1, blocksize=None
  Wavefunction extrapolation:
    Improved wavefunction reuse through dual PAW basis 

Excited-state calculation with Maximum Overlap Method
  Gaussian smearing of holes and excited electrons: off

Eigensolver
   Direct minimisation using exponential transformation.
       Search direction: L-BFGS algorithm
       Line search: step size equals one
       Preconditioning: True
       Orbital-density self-interaction corrections: ks
       WARNING: do not use it for metals as occupation numbers are
                not found variationally
 

Densities:
  Coarse grid: 63*63*63 grid
  Fine grid: 126*126*126 grid
  Total Charge: -1.000000 

Density mixing:
  Method: difference
  Backend: no-mixing
  Linear mixing parameter: 0
  old densities: 0
  Damping of long wavelength oscillations: 0 

Hamiltonian:
  XC and Coulomb potentials evaluated on a 126*126*126 grid
  Using the HSE06 Exchange-Correlation functional
  External potential:
    NoExternalPotential
Poisson solver:
  Uniform background charge: -1.000 electrons
 

XC parameters: HYB_GGA_XC_HSE06 + 0.25 * EXX(omega = 0.11 bohr^-1)

Memory estimate:
  Process memory now: 339.89 MiB
Attribute error: AttributeError("'HybridXC' object has no attribute 'estimate_memory'")
Some object probably lacks estimate_memory() method
Memory breakdown may be incomplete
  Calculator: 5.42 MiB
    Density: 3.82 MiB
      Arrays: 2.16 MiB
      Localized functions: 1.67 MiB
      Mixer: 0.00 MiB
    Hamiltonian: 1.60 MiB
      Arrays: 1.60 MiB

Total number of cores used: 32
Domain decomposition: 4 x 4 x 2

Number of atoms: 215
Number of atomic orbitals: 860
Number of bands in calculation: 444
Number of valence electrons: 862
Bands to converge: occupied

... initialized

Input parameters:
  eigensolver: {blocksize: 1,
                converge_unocc: True,
                excited_state: True,
                functional: {'name': 'ks'},
                grad_tol_inner_loop: 0.0001,
                grad_tol_pz_localization: 0.0005,
                linesearch_algo: {'name': 'max-step', 'max_step': 0.2},
                localization_tol: None,
                localizationseed: None,
                localizationtype: None,
                max_step_inner_loop: 0.2,
                maxiter_inner_loop: 6,
                maxiter_pz_localization: 50,
                maxiter_unocc: 333,
                momevery: 10,
                name: etdm-fdpw,
                need_init_orbs: False,
                need_localization: False,
                printinnerloop: False,
                restart_canonical: True,
                restartevery_iloop_notconverged: 3,
                searchdir_algo: {'name': 'l-bfgs', 'memory': 3},
                use_prec: True}

Initialize ...

species:
  C:
    name: Carbon
    id: 4aa54d4b901d75f77cc0ea3eec22967b
    Z: 6.0
    valence: 4
    core: 2
    charge: 0.0
    file: /work/home/ac2uoma125/anaconda3/envs/gpaw2460/share/gpaw/C.PBE.gz
    compensation charges: {type: gauss,
                           rc: 0.20,
                           lmax: 2}
    cutoffs: {filter: 1.14,
              core: 1.14}
    projectors:
      #              energy  rcut
      - 2s(2.00)   -13.751   0.635
      - 2p(2.00)    -5.284   0.635
      -  s          13.461   0.635
      -  p          21.927   0.635
      -  d           0.000   0.635
  
    # Using partial waves for C as LCAO basis

  N:
    name: Nitrogen
    id: f7500608b86eaa90eef8b1d9a670dc53
    Z: 7.0
    valence: 5
    core: 2
    charge: 0.0
    file: /work/home/ac2uoma125/anaconda3/envs/gpaw2460/share/gpaw/N.PBE.gz
    compensation charges: {type: gauss,
                           rc: 0.18,
                           lmax: 2}
    cutoffs: {filter: 1.11,
              core: 0.96}
    projectors:
      #              energy  rcut
      - 2s(2.00)   -18.583   0.603
      - 2p(3.00)    -7.089   0.529
      -  s           8.629   0.603
      -  p          20.123   0.529
      -  d           0.000   0.577
  
    # Using partial waves for N as LCAO basis

Reference energy: -221394.138216  # eV

Spin-polarized calculation.
Magnetic moment: 2.000000

Convergence criteria:
 Maximum [total energy] change in last 3 cyles: 0.0005 eV / valence electron
 Maximum integral of absolute [dens]ity change: 0.0001 electrons / valence electron
 Maximum integral of absolute [eigenst]ate change: 4e-08 eV^2 / valence electron
 Maximum number of scf [iter]ations: 333
 (Square brackets indicate name in SCF output, whereas a 'c' in
 the SCF output indicates the quantity has converged.)

Excited-state calculation with Maximum Overlap Method
  Gaussian smearing of holes and excited electrons: off

Eigensolver
   Direct minimisation using exponential transformation.
       Search direction: L-BFGS algorithm
       Line search: step size equals one
       Preconditioning: True
       Orbital-density self-interaction corrections: ks
       WARNING: do not use it for metals as occupation numbers are
                not found variationally
 

Density mixing:
  Method: difference
  Backend: no-mixing
  Linear mixing parameter: 0
  old densities: 0
  Damping of long wavelength oscillations: 0 

XC parameters: HYB_GGA_XC_HSE06 + 0.25 * EXX(omega = 0.11 bohr^-1)

Memory estimate:
  Process memory now: 339.89 MiB
Attribute error: AttributeError("'HybridXC' object has no attribute 'estimate_memory'")
Some object probably lacks estimate_memory() method
Memory breakdown may be incomplete
  Calculator: 5.42 MiB
    Density: 3.82 MiB
      Arrays: 2.16 MiB
      Localized functions: 1.67 MiB
      Mixer: 0.00 MiB
    Hamiltonian: 1.60 MiB
      Arrays: 1.60 MiB

Total number of cores used: 32
Domain decomposition: 4 x 4 x 2

Number of atoms: 215
Number of atomic orbitals: 860
Number of bands in calculation: 444
Number of valence electrons: 862
Bands to converge: all

... initialized

Initializing position-dependent things.

Density initialized from wave functions
        .--------C----------------.  
       /|           C             |  
      / | C       C  C C   C      |  
     / C|    C  C    C  C     C   |  
    /  C|C    C C C    C CCC   C  |  
   /    C C C    C C      N CC    |  
  /  C C| CCCCCC  C C C    C CC   |  
 *    C C   CCCCC    C C C    C C |  
 |C    CCC C  CCCCC C  CCCCC   C C|  
 | C C  CCC C    CCC C C  CCC     C  
 |  C C | CCCC C  CCCCC C  CC C   |  
 C   CC C C C C C    CCC C   CC   |  
 |    CCCC C C CCCCC C CCCC C  C  |  
 |     C.CC-C-C-C-CC-C-C-C-C-C----.  
 |  C C/C CCCC   C C CC C C CCC  /   
 |   CC     C CC    C C      C  /    
 |   /C C      CCCC    C C     /     
 |  /    C C      C C      CC /      
 | /C       C        C C     /       
 |/                     C   /        
 C----------------C--------*         

Positions:
   0 C      0.002372    0.002372    0.002372    ( 0.0000,  0.0000,  0.0000)
   1 C     -0.000177    1.774292    1.774292    ( 0.0000,  0.0000,  0.0000)
   2 C      1.774292    1.774292   -0.000177    ( 0.0000,  0.0000,  0.0000)
   3 C      1.774292   -0.000177    1.774292    ( 0.0000,  0.0000,  0.0000)
   4 C      2.660291    0.886016    2.660291    ( 0.0000,  0.0000,  0.0000)
   5 C      0.887932    0.887932    0.887932    ( 0.0000,  0.0000,  0.0000)
   6 C      0.886016    2.660291    2.660291    ( 0.0000,  0.0000,  0.0000)
   7 C      2.660291    2.660291    0.886016    ( 0.0000,  0.0000,  0.0000)
   8 C     -0.001720   -0.001720    3.550221    ( 0.0000,  0.0000,  0.0000)
   9 C     -0.001514    1.772014    5.320396    ( 0.0000,  0.0000,  0.0000)
  10 C      1.772639    1.772639    3.546938    ( 0.0000,  0.0000,  0.0000)
  11 C      1.772014   -0.001514    5.320396    ( 0.0000,  0.0000,  0.0000)
  12 C      2.658540    0.886445    6.206956    ( 0.0000,  0.0000,  0.0000)
  13 C      0.885452    0.885452    4.434520    ( 0.0000,  0.0000,  0.0000)
  14 C      0.886445    2.658540    6.206956    ( 0.0000,  0.0000,  0.0000)
  15 C      2.659334    2.659334    4.433008    ( 0.0000,  0.0000,  0.0000)
  16 C      0.005597    0.005597    7.096195    ( 0.0000,  0.0000,  0.0000)
  17 C      0.000909    1.776657    8.866874    ( 0.0000,  0.0000,  0.0000)
  18 C      1.773012    1.773012    7.093113    ( 0.0000,  0.0000,  0.0000)
  19 C      1.776657    0.000909    8.866874    ( 0.0000,  0.0000,  0.0000)
  20 C      2.662759    0.886233    9.752379    ( 0.0000,  0.0000,  0.0000)
  21 C      0.889792    0.889792    7.980502    ( 0.0000,  0.0000,  0.0000)
  22 C      0.886233    2.662759    9.752379    ( 0.0000,  0.0000,  0.0000)
  23 C      2.657417    2.657417    7.978135    ( 0.0000,  0.0000,  0.0000)
  24 C     -0.001720    3.550221   -0.001720    ( 0.0000,  0.0000,  0.0000)
  25 C     -0.001514    5.320396    1.772014    ( 0.0000,  0.0000,  0.0000)
  26 C      1.772014    5.320396   -0.001514    ( 0.0000,  0.0000,  0.0000)
  27 C      1.772639    3.546938    1.772639    ( 0.0000,  0.0000,  0.0000)
  28 C      2.659334    4.433008    2.659334    ( 0.0000,  0.0000,  0.0000)
  29 C      0.885452    4.434520    0.885452    ( 0.0000,  0.0000,  0.0000)
  30 C      0.886445    6.206956    2.658540    ( 0.0000,  0.0000,  0.0000)
  31 C      2.658540    6.206956    0.886445    ( 0.0000,  0.0000,  0.0000)
  32 C     -0.001669    3.546694    3.546694    ( 0.0000,  0.0000,  0.0000)
  33 C     -0.002583    5.319921    5.319921    ( 0.0000,  0.0000,  0.0000)
  34 C      1.771768    5.319199    3.545991    ( 0.0000,  0.0000,  0.0000)
  35 C      1.771768    3.545991    5.319199    ( 0.0000,  0.0000,  0.0000)
  36 C      2.657674    4.432033    6.205470    ( 0.0000,  0.0000,  0.0000)
  37 C      0.884954    4.433087    4.433087    ( 0.0000,  0.0000,  0.0000)
  38 C      0.883451    6.206763    6.206763    ( 0.0000,  0.0000,  0.0000)
  39 C      2.657674    6.205470    4.432033    ( 0.0000,  0.0000,  0.0000)
  40 C      0.000014    3.545859    7.091609    ( 0.0000,  0.0000,  0.0000)
  41 C     -0.010700    5.330071    8.863338    ( 0.0000,  0.0000,  0.0000)
  42 C      1.771117    5.320902    7.092299    ( 0.0000,  0.0000,  0.0000)
  43 C      1.770943    3.548938    8.865634    ( 0.0000,  0.0000,  0.0000)
  44 C      2.658959    4.434080    9.751333    ( 0.0000,  0.0000,  0.0000)
  45 C      0.881582    4.437692    7.977967    ( 0.0000,  0.0000,  0.0000)
  46 C      0.885071    6.209040    9.751980    ( 0.0000,  0.0000,  0.0000)
  47 C      2.660173    6.206484    7.978018    ( 0.0000,  0.0000,  0.0000)
  48 C      0.005597    7.096195    0.005597    ( 0.0000,  0.0000,  0.0000)
  49 C      0.000909    8.866874    1.776657    ( 0.0000,  0.0000,  0.0000)
  50 C      1.776657    8.866874    0.000909    ( 0.0000,  0.0000,  0.0000)
  51 C      1.773012    7.093113    1.773012    ( 0.0000,  0.0000,  0.0000)
  52 C      2.657417    7.978135    2.657417    ( 0.0000,  0.0000,  0.0000)
  53 C      0.889792    7.980502    0.889792    ( 0.0000,  0.0000,  0.0000)
  54 C      0.886233    9.752379    2.662759    ( 0.0000,  0.0000,  0.0000)
  55 C      2.662759    9.752379    0.886233    ( 0.0000,  0.0000,  0.0000)
  56 C      0.000014    7.091609    3.545859    ( 0.0000,  0.0000,  0.0000)
  57 C     -0.010700    8.863338    5.330071    ( 0.0000,  0.0000,  0.0000)
  58 C      1.770943    8.865634    3.548938    ( 0.0000,  0.0000,  0.0000)
  59 C      1.771117    7.092299    5.320902    ( 0.0000,  0.0000,  0.0000)
  60 C      2.660173    7.978018    6.206484    ( 0.0000,  0.0000,  0.0000)
  61 C      0.881582    7.977967    4.437692    ( 0.0000,  0.0000,  0.0000)
  62 C      0.885071    9.751980    6.209040    ( 0.0000,  0.0000,  0.0000)
  63 C      2.658959    9.751333    4.434080    ( 0.0000,  0.0000,  0.0000)
  64 C     -0.005349    7.094062    7.094062    ( 0.0000,  0.0000,  0.0000)
  65 C      0.007882    8.871270    8.871270    ( 0.0000,  0.0000,  0.0000)
  66 C      1.773973    8.865184    7.093341    ( 0.0000,  0.0000,  0.0000)
  67 C      1.773973    7.093341    8.865184    ( 0.0000,  0.0000,  0.0000)
  68 C      2.662178    7.979334    9.751729    ( 0.0000,  0.0000,  0.0000)
  69 C      0.887169    7.980595    7.980595    ( 0.0000,  0.0000,  0.0000)
  70 C      0.891775    9.755494    9.755494    ( 0.0000,  0.0000,  0.0000)
  71 C      2.662178    9.751729    7.979334    ( 0.0000,  0.0000,  0.0000)
  72 C      3.550221   -0.001720   -0.001720    ( 0.0000,  0.0000,  0.0000)
  73 C      3.546938    1.772639    1.772639    ( 0.0000,  0.0000,  0.0000)
  74 C      5.320396    1.772014   -0.001514    ( 0.0000,  0.0000,  0.0000)
  75 C      5.320396   -0.001514    1.772014    ( 0.0000,  0.0000,  0.0000)
  76 C      6.206956    0.886445    2.658540    ( 0.0000,  0.0000,  0.0000)
  77 C      4.434520    0.885452    0.885452    ( 0.0000,  0.0000,  0.0000)
  78 C      4.433008    2.659334    2.659334    ( 0.0000,  0.0000,  0.0000)
  79 C      6.206956    2.658540    0.886445    ( 0.0000,  0.0000,  0.0000)
  80 C      3.546694   -0.001669    3.546694    ( 0.0000,  0.0000,  0.0000)
  81 C      3.545991    1.771768    5.319199    ( 0.0000,  0.0000,  0.0000)
  82 C      5.319199    1.771768    3.545991    ( 0.0000,  0.0000,  0.0000)
  83 C      5.319921   -0.002583    5.319921    ( 0.0000,  0.0000,  0.0000)
  84 C      6.206763    0.883451    6.206763    ( 0.0000,  0.0000,  0.0000)
  85 C      4.433087    0.884954    4.433087    ( 0.0000,  0.0000,  0.0000)
  86 C      4.432033    2.657674    6.205470    ( 0.0000,  0.0000,  0.0000)
  87 C      6.205470    2.657674    4.432033    ( 0.0000,  0.0000,  0.0000)
  88 C      3.545859    0.000014    7.091609    ( 0.0000,  0.0000,  0.0000)
  89 C      3.548938    1.770943    8.865634    ( 0.0000,  0.0000,  0.0000)
  90 C      5.320902    1.771117    7.092299    ( 0.0000,  0.0000,  0.0000)
  91 C      5.330071   -0.010700    8.863338    ( 0.0000,  0.0000,  0.0000)
  92 C      6.209040    0.885071    9.751980    ( 0.0000,  0.0000,  0.0000)
  93 C      4.437692    0.881582    7.977967    ( 0.0000,  0.0000,  0.0000)
  94 C      4.434080    2.658959    9.751333    ( 0.0000,  0.0000,  0.0000)
  95 C      6.206484    2.660173    7.978018    ( 0.0000,  0.0000,  0.0000)
  96 C      3.546694    3.546694   -0.001669    ( 0.0000,  0.0000,  0.0000)
  97 C      3.545991    5.319199    1.771768    ( 0.0000,  0.0000,  0.0000)
  98 C      5.319921    5.319921   -0.002583    ( 0.0000,  0.0000,  0.0000)
  99 C      5.319199    3.545991    1.771768    ( 0.0000,  0.0000,  0.0000)
 100 C      6.205470    4.432033    2.657674    ( 0.0000,  0.0000,  0.0000)
 101 C      4.433087    4.433087    0.884954    ( 0.0000,  0.0000,  0.0000)
 102 C      4.432033    6.205470    2.657674    ( 0.0000,  0.0000,  0.0000)
 103 C      6.206763    6.206763    0.883451    ( 0.0000,  0.0000,  0.0000)
 104 C      3.546165    3.546165    3.546165    ( 0.0000,  0.0000,  0.0000)
 105 C      3.546493    5.320207    5.320207    ( 0.0000,  0.0000,  0.0000)
 106 C      5.320207    5.320207    3.546493    ( 0.0000,  0.0000,  0.0000)
 107 C      5.320207    3.546493    5.320207    ( 0.0000,  0.0000,  0.0000)
 108 C      6.204957    4.435216    6.204957    ( 0.0000,  0.0000,  0.0000)
 109 C      4.432681    4.432681    4.432681    ( 0.0000,  0.0000,  0.0000)
 110 C      4.435216    6.204957    6.204957    ( 0.0000,  0.0000,  0.0000)
 111 C      6.204957    6.204957    4.435216    ( 0.0000,  0.0000,  0.0000)
 112 C      3.540875    3.540875    7.092749    ( 0.0000,  0.0000,  0.0000)
 113 C      3.546107    5.318967    8.863917    ( 0.0000,  0.0000,  0.0000)
 114 C      5.319652    5.319652    7.095926    ( 0.0000,  0.0000,  0.0000)
 115 C      5.318967    3.546107    8.863917    ( 0.0000,  0.0000,  0.0000)
 116 C      6.209079    4.430145    9.754367    ( 0.0000,  0.0000,  0.0000)
 117 C      4.423602    4.423602    7.973369    ( 0.0000,  0.0000,  0.0000)
 118 C      4.430145    6.209079    9.754367    ( 0.0000,  0.0000,  0.0000)
 119 C      6.145582    6.145582    8.012744    ( 0.0000,  0.0000,  0.0000)
 120 C      3.545859    7.091609    0.000014    ( 0.0000,  0.0000,  0.0000)
 121 C      3.548938    8.865634    1.770943    ( 0.0000,  0.0000,  0.0000)
 122 C      5.330071    8.863338   -0.010700    ( 0.0000,  0.0000,  0.0000)
 123 C      5.320902    7.092299    1.771117    ( 0.0000,  0.0000,  0.0000)
 124 C      6.206484    7.978018    2.660173    ( 0.0000,  0.0000,  0.0000)
 125 C      4.437692    7.977967    0.881582    ( 0.0000,  0.0000,  0.0000)
 126 C      4.434080    9.751333    2.658959    ( 0.0000,  0.0000,  0.0000)
 127 C      6.209040    9.751980    0.885071    ( 0.0000,  0.0000,  0.0000)
 128 C      3.540875    7.092749    3.540875    ( 0.0000,  0.0000,  0.0000)
 129 C      3.546107    8.863917    5.318967    ( 0.0000,  0.0000,  0.0000)
 130 C      5.318967    8.863917    3.546107    ( 0.0000,  0.0000,  0.0000)
 131 C      5.319652    7.095926    5.319652    ( 0.0000,  0.0000,  0.0000)
 132 C      6.145582    8.012744    6.145582    ( 0.0000,  0.0000,  0.0000)
 133 C      4.423602    7.973369    4.423602    ( 0.0000,  0.0000,  0.0000)
 134 C      4.430145    9.754367    6.209079    ( 0.0000,  0.0000,  0.0000)
 135 C      6.209079    9.754367    4.430145    ( 0.0000,  0.0000,  0.0000)
 136 C      3.550030    7.090855    7.090855    ( 0.0000,  0.0000,  0.0000)
 137 C      3.552115    8.861877    8.861877    ( 0.0000,  0.0000,  0.0000)
 138 C      5.332666    8.847031    7.083222    ( 0.0000,  0.0000,  0.0000)
 139 C      5.332666    7.083222    8.847031    ( 0.0000,  0.0000,  0.0000)
 140 C      6.223423    7.971641    9.734620    ( 0.0000,  0.0000,  0.0000)
 141 C      4.440870    7.974370    7.974370    ( 0.0000,  0.0000,  0.0000)
 142 C      4.438713    9.748724    9.748724    ( 0.0000,  0.0000,  0.0000)
 143 C      6.223423    9.734620    7.971641    ( 0.0000,  0.0000,  0.0000)
 144 C      7.096195    0.005597    0.005597    ( 0.0000,  0.0000,  0.0000)
 145 C      7.093113    1.773012    1.773012    ( 0.0000,  0.0000,  0.0000)
 146 C      8.866874    1.776657    0.000909    ( 0.0000,  0.0000,  0.0000)
 147 C      8.866874    0.000909    1.776657    ( 0.0000,  0.0000,  0.0000)
 148 C      9.752379    0.886233    2.662759    ( 0.0000,  0.0000,  0.0000)
 149 C      7.980502    0.889792    0.889792    ( 0.0000,  0.0000,  0.0000)
 150 C      7.978135    2.657417    2.657417    ( 0.0000,  0.0000,  0.0000)
 151 C      9.752379    2.662759    0.886233    ( 0.0000,  0.0000,  0.0000)
 152 C      7.091609    0.000014    3.545859    ( 0.0000,  0.0000,  0.0000)
 153 C      7.092299    1.771117    5.320902    ( 0.0000,  0.0000,  0.0000)
 154 C      8.865634    1.770943    3.548938    ( 0.0000,  0.0000,  0.0000)
 155 C      8.863338   -0.010700    5.330071    ( 0.0000,  0.0000,  0.0000)
 156 C      9.751980    0.885071    6.209040    ( 0.0000,  0.0000,  0.0000)
 157 C      7.977967    0.881582    4.437692    ( 0.0000,  0.0000,  0.0000)
 158 C      7.978018    2.660173    6.206484    ( 0.0000,  0.0000,  0.0000)
 159 C      9.751333    2.658959    4.434080    ( 0.0000,  0.0000,  0.0000)
 160 C      7.094062   -0.005349    7.094062    ( 0.0000,  0.0000,  0.0000)
 161 C      7.093341    1.773973    8.865184    ( 0.0000,  0.0000,  0.0000)
 162 C      8.865184    1.773973    7.093341    ( 0.0000,  0.0000,  0.0000)
 163 C      8.871270    0.007882    8.871270    ( 0.0000,  0.0000,  0.0000)
 164 C      9.755494    0.891775    9.755494    ( 0.0000,  0.0000,  0.0000)
 165 C      7.980595    0.887169    7.980595    ( 0.0000,  0.0000,  0.0000)
 166 C      7.979334    2.662178    9.751729    ( 0.0000,  0.0000,  0.0000)
 167 C      9.751729    2.662178    7.979334    ( 0.0000,  0.0000,  0.0000)
 168 C      7.091609    3.545859    0.000014    ( 0.0000,  0.0000,  0.0000)
 169 C      7.092299    5.320902    1.771117    ( 0.0000,  0.0000,  0.0000)
 170 C      8.863338    5.330071   -0.010700    ( 0.0000,  0.0000,  0.0000)
 171 C      8.865634    3.548938    1.770943    ( 0.0000,  0.0000,  0.0000)
 172 C      9.751333    4.434080    2.658959    ( 0.0000,  0.0000,  0.0000)
 173 C      7.977967    4.437692    0.881582    ( 0.0000,  0.0000,  0.0000)
 174 C      7.978018    6.206484    2.660173    ( 0.0000,  0.0000,  0.0000)
 175 C      9.751980    6.209040    0.885071    ( 0.0000,  0.0000,  0.0000)
 176 C      7.092749    3.540875    3.540875    ( 0.0000,  0.0000,  0.0000)
 177 C      7.095926    5.319652    5.319652    ( 0.0000,  0.0000,  0.0000)
 178 C      8.863917    5.318967    3.546107    ( 0.0000,  0.0000,  0.0000)
 179 C      8.863917    3.546107    5.318967    ( 0.0000,  0.0000,  0.0000)
 180 C      9.754367    4.430145    6.209079    ( 0.0000,  0.0000,  0.0000)
 181 C      7.973369    4.423602    4.423602    ( 0.0000,  0.0000,  0.0000)
 182 C      8.012744    6.145582    6.145582    ( 0.0000,  0.0000,  0.0000)
 183 C      9.754367    6.209079    4.430145    ( 0.0000,  0.0000,  0.0000)
 184 C      7.090855    3.550030    7.090855    ( 0.0000,  0.0000,  0.0000)
 185 C      7.083222    5.332666    8.847031    ( 0.0000,  0.0000,  0.0000)
 186 C      8.847031    5.332666    7.083222    ( 0.0000,  0.0000,  0.0000)
 187 C      8.861877    3.552115    8.861877    ( 0.0000,  0.0000,  0.0000)
 188 C      9.748724    4.438713    9.748724    ( 0.0000,  0.0000,  0.0000)
 189 C      7.974370    4.440870    7.974370    ( 0.0000,  0.0000,  0.0000)
 190 C      7.971641    6.223423    9.734620    ( 0.0000,  0.0000,  0.0000)
 191 C      9.734620    6.223423    7.971641    ( 0.0000,  0.0000,  0.0000)
 192 C      7.094062    7.094062   -0.005349    ( 0.0000,  0.0000,  0.0000)
 193 C      7.093341    8.865184    1.773973    ( 0.0000,  0.0000,  0.0000)
 194 C      8.871270    8.871270    0.007882    ( 0.0000,  0.0000,  0.0000)
 195 C      8.865184    7.093341    1.773973    ( 0.0000,  0.0000,  0.0000)
 196 C      9.751729    7.979334    2.662178    ( 0.0000,  0.0000,  0.0000)
 197 C      7.980595    7.980595    0.887169    ( 0.0000,  0.0000,  0.0000)
 198 C      7.979334    9.751729    2.662178    ( 0.0000,  0.0000,  0.0000)
 199 C      9.755494    9.755494    0.891775    ( 0.0000,  0.0000,  0.0000)
 200 C      7.090855    7.090855    3.550030    ( 0.0000,  0.0000,  0.0000)
 201 C      7.083222    8.847031    5.332666    ( 0.0000,  0.0000,  0.0000)
 202 C      8.861877    8.861877    3.552115    ( 0.0000,  0.0000,  0.0000)
 203 C      8.847031    7.083222    5.332666    ( 0.0000,  0.0000,  0.0000)
 204 C      9.734620    7.971641    6.223423    ( 0.0000,  0.0000,  0.0000)
 205 C      7.974370    7.974370    4.440870    ( 0.0000,  0.0000,  0.0000)
 206 C      7.971641    9.734620    6.223423    ( 0.0000,  0.0000,  0.0000)
 207 C      9.748724    9.748724    4.438713    ( 0.0000,  0.0000,  0.0000)
 208 C      7.136597    8.864770    8.864770    ( 0.0000,  0.0000,  0.0000)
 209 C      8.864770    8.864770    7.136597    ( 0.0000,  0.0000,  0.0000)
 210 C      8.864770    7.136597    8.864770    ( 0.0000,  0.0000,  0.0000)
 211 C      9.766565    7.984371    9.766565    ( 0.0000,  0.0000,  0.0000)
 212 N      8.067138    8.067138    8.067138    ( 0.0000,  0.0000,  2.0000)
 213 C      7.984371    9.766565    9.766565    ( 0.0000,  0.0000,  0.0000)
 214 C      9.766565    9.766565    7.984371    ( 0.0000,  0.0000,  0.0000)

Unit cell:
           periodic     x           y           z      points  spacing
  1. axis:    yes   10.639295    0.000000    0.000000    63     0.1689
  2. axis:    yes    0.000000   10.639295    0.000000    63     0.1689
  3. axis:    yes    0.000000    0.000000   10.639295    63     0.1689

  Lengths:  10.639295  10.639295  10.639295
  Angles:   90.000000  90.000000  90.000000

Effective grid spacing dv^(1/3) = 0.1689

     iter     time        total  log10-change:  magmom         iter
                         energy   eigst   dens             inner loop
iter:   1 16:08:52 -2155.333439   -7.98c -7.14c   +2.0000           2
iter:   2 17:19:42 -2155.333467   -8.29c -7.21c   +2.0000           4
iter:   3 18:29:07 -2155.333465c  -8.10c -6.94c   +2.0000           4

Occupied states converged after 11 e/g evaluations
Converge unoccupied states:
                                   wfs    
           time        Energy:     error(ev^2):
iter:   1  18:56:22   30.752161     1.4e-01
iter:   2  19:09:49   30.748933     1.2e-01
iter:   3  19:23:16   30.748200     9.7e-02
iter:   4  19:36:41   30.746117     6.4e-02
iter:   5  19:50:06   30.746284     7.3e-02
iter:   6  20:03:31   30.746877     8.9e-02
iter:   7  20:16:57   30.745544     3.6e-02
iter:   8  20:30:21   30.744980     7.9e-03
iter:   9  20:43:45   30.745302     3.2e-02
iter:  10  20:57:10   30.745401     3.9e-02
iter:  11  21:10:33   30.746097     8.1e-02
iter:  12  21:23:57   30.746526     1.1e-01
iter:  13  21:37:21   30.746956     1.4e-01
iter:  14  21:50:45   30.745280     4.4e-02
iter:  15  22:04:09   30.744799     1.3e-02
iter:  16  22:17:33   30.744658     8.1e-03
iter:  17  22:30:57   30.744656     1.2e-02
iter:  18  22:44:21   30.744712     1.8e-02
iter:  19  22:57:46   30.744524     7.1e-03
iter:  20  23:11:10   30.744499     4.7e-03
iter:  21  23:24:35   30.744549     7.0e-03
iter:  22  23:38:00   30.744515     6.6e-03
iter:  23  23:51:23   30.744419     2.2e-03
iter:  24  00:04:47   30.744421     2.3e-03
iter:  25  00:18:12   30.744513     4.8e-03
iter:  26  00:31:35   30.744543     6.8e-03
iter:  27  00:45:00   30.744450     4.6e-03
iter:  28  00:58:22   30.744396     2.0e-03
iter:  29  01:11:46   30.744388     1.6e-03
iter:  30  01:25:10   30.744364     3.9e-04

Unoccupied orbitals converged after 30 iterations

Converged after 3 iterations.

Dipole moment: (0.810795, 1.012286, 0.811654) |e|*Ang

Total magnetic moment: (0.000000, 0.000000, 2.000000)
Local magnetic moments:
   0 C  ( 0.000000,  0.000000,  0.000002)
   1 C  ( 0.000000,  0.000000,  0.000015)
   2 C  ( 0.000000,  0.000000,  0.000015)
   3 C  ( 0.000000,  0.000000,  0.000016)
   4 C  ( 0.000000,  0.000000,  0.000493)
   5 C  ( 0.000000,  0.000000,  0.000440)
   6 C  ( 0.000000,  0.000000,  0.000337)
   7 C  ( 0.000000,  0.000000,  0.000338)
   8 C  ( 0.000000,  0.000000, -0.000046)
   9 C  ( 0.000000,  0.000000, -0.000124)
  10 C  ( 0.000000,  0.000000,  0.000040)
  11 C  ( 0.000000,  0.000000, -0.000130)
  12 C  ( 0.000000,  0.000000,  0.001470)
  13 C  ( 0.000000,  0.000000,  0.000148)
  14 C  ( 0.000000,  0.000000,  0.000905)
  15 C  ( 0.000000,  0.000000,  0.000241)
  16 C  ( 0.000000,  0.000000,  0.000710)
  17 C  ( 0.000000,  0.000000, -0.000067)
  18 C  ( 0.000000,  0.000000,  0.001135)
  19 C  ( 0.000000,  0.000000, -0.000033)
  20 C  ( 0.000000,  0.000000,  0.000172)
  21 C  ( 0.000000,  0.000000,  0.000580)
  22 C  ( 0.000000,  0.000000,  0.000177)
  23 C  ( 0.000000,  0.000000,  0.001040)
  24 C  ( 0.000000,  0.000000,  0.000068)
  25 C  ( 0.000000,  0.000000, -0.000127)
  26 C  ( 0.000000,  0.000000, -0.000126)
  27 C  ( 0.000000,  0.000000,  0.000067)
  28 C  ( 0.000000,  0.000000,  0.000212)
  29 C  ( 0.000000,  0.000000,  0.000124)
  30 C  ( 0.000000,  0.000000,  0.000593)
  31 C  ( 0.000000,  0.000000,  0.000595)
  32 C  ( 0.000000,  0.000000, -0.000054)
  33 C  ( 0.000000,  0.000000, -0.000862)
  34 C  ( 0.000000,  0.000000, -0.000076)
  35 C  ( 0.000000,  0.000000, -0.000014)
  36 C  ( 0.000000,  0.000000,  0.000083)
  37 C  ( 0.000000,  0.000000,  0.000893)
  38 C  ( 0.000000,  0.000000,  0.000839)
  39 C  ( 0.000000,  0.000000,  0.000154)
  40 C  ( 0.000000,  0.000000,  0.001499)
  41 C  ( 0.000000,  0.000000, -0.000312)
  42 C  ( 0.000000,  0.000000, -0.000136)
  43 C  ( 0.000000,  0.000000, -0.000030)
  44 C  ( 0.000000,  0.000000,  0.000769)
  45 C  ( 0.000000,  0.000000,  0.000023)
  46 C  ( 0.000000,  0.000000,  0.000121)
  47 C  ( 0.000000,  0.000000,  0.000952)
  48 C  ( 0.000000,  0.000000,  0.000814)
  49 C  ( 0.000000,  0.000000, -0.000044)
  50 C  ( 0.000000,  0.000000, -0.000043)
  51 C  ( 0.000000,  0.000000,  0.000880)
  52 C  ( 0.000000,  0.000000,  0.001761)
  53 C  ( 0.000000,  0.000000,  0.000752)
  54 C  ( 0.000000,  0.000000,  0.000185)
  55 C  ( 0.000000,  0.000000,  0.000185)
  56 C  ( 0.000000,  0.000000, -0.000056)
  57 C  ( 0.000000,  0.000000, -0.000152)
  58 C  ( 0.000000,  0.000000, -0.000088)
  59 C  ( 0.000000,  0.000000, -0.000167)
  60 C  ( 0.000000,  0.000000,  0.000950)
  61 C  ( 0.000000,  0.000000,  0.000139)
  62 C  ( 0.000000,  0.000000,  0.000065)
  63 C  ( 0.000000,  0.000000,  0.001245)
  64 C  ( 0.000000,  0.000000, -0.000542)
  65 C  ( 0.000000,  0.000000, -0.000393)
  66 C  ( 0.000000,  0.000000, -0.000099)
  67 C  ( 0.000000,  0.000000, -0.000090)
  68 C  ( 0.000000,  0.000000,  0.000154)
  69 C  ( 0.000000,  0.000000,  0.000672)
  70 C  ( 0.000000,  0.000000,  0.000761)
  71 C  ( 0.000000,  0.000000,  0.000021)
  72 C  ( 0.000000,  0.000000, -0.000046)
  73 C  ( 0.000000,  0.000000,  0.000039)
  74 C  ( 0.000000,  0.000000, -0.000123)
  75 C  ( 0.000000,  0.000000, -0.000130)
  76 C  ( 0.000000,  0.000000,  0.001472)
  77 C  ( 0.000000,  0.000000,  0.000148)
  78 C  ( 0.000000,  0.000000,  0.000241)
  79 C  ( 0.000000,  0.000000,  0.000908)
  80 C  ( 0.000000,  0.000000, -0.000092)
  81 C  ( 0.000000,  0.000000, -0.000098)
  82 C  ( 0.000000,  0.000000, -0.000098)
  83 C  ( 0.000000,  0.000000, -0.001648)
  84 C  ( 0.000000,  0.000000,  0.001030)
  85 C  ( 0.000000,  0.000000,  0.001434)
  86 C  ( 0.000000,  0.000000,  0.000154)
  87 C  ( 0.000000,  0.000000,  0.000153)
  88 C  ( 0.000000,  0.000000,  0.002434)
  89 C  ( 0.000000,  0.000000, -0.000079)
  90 C  ( 0.000000,  0.000000, -0.000129)
  91 C  ( 0.000000,  0.000000, -0.000546)
  92 C  ( 0.000000,  0.000000,  0.000033)
  93 C  ( 0.000000,  0.000000,  0.000017)
  94 C  ( 0.000000,  0.000000,  0.000675)
  95 C  ( 0.000000,  0.000000,  0.000232)
  96 C  ( 0.000000,  0.000000, -0.000054)
  97 C  ( 0.000000,  0.000000, -0.000076)
  98 C  ( 0.000000,  0.000000, -0.000866)
  99 C  ( 0.000000,  0.000000, -0.000014)
 100 C  ( 0.000000,  0.000000,  0.000083)
 101 C  ( 0.000000,  0.000000,  0.000894)
 102 C  ( 0.000000,  0.000000,  0.000154)
 103 C  ( 0.000000,  0.000000,  0.000839)
 104 C  ( 0.000000,  0.000000,  0.000316)
 105 C  ( 0.000000,  0.000000, -0.000568)
 106 C  ( 0.000000,  0.000000, -0.000565)
 107 C  ( 0.000000,  0.000000, -0.000128)
 108 C  ( 0.000000,  0.000000,  0.003550)
 109 C  ( 0.000000,  0.000000,  0.000584)
 110 C  ( 0.000000,  0.000000,  0.004418)
 111 C  ( 0.000000,  0.000000,  0.004416)
 112 C  ( 0.000000,  0.000000,  0.002350)
 113 C  ( 0.000000,  0.000000, -0.000842)
 114 C  ( 0.000000,  0.000000,  0.001822)
 115 C  ( 0.000000,  0.000000, -0.000803)
 116 C  ( 0.000000,  0.000000,  0.010387)
 117 C  ( 0.000000,  0.000000,  0.009997)
 118 C  ( 0.000000,  0.000000,  0.008602)
 119 C  ( 0.000000,  0.000000,  0.130175)
 120 C  ( 0.000000,  0.000000, -0.000052)
 121 C  ( 0.000000,  0.000000, -0.000088)
 122 C  ( 0.000000,  0.000000, -0.000153)
 123 C  ( 0.000000,  0.000000, -0.000167)
 124 C  ( 0.000000,  0.000000,  0.000946)
 125 C  ( 0.000000,  0.000000,  0.000139)
 126 C  ( 0.000000,  0.000000,  0.001244)
 127 C  ( 0.000000,  0.000000,  0.000064)
 128 C  ( 0.000000,  0.000000,  0.003279)
 129 C  ( 0.000000,  0.000000, -0.001587)
 130 C  ( 0.000000,  0.000000, -0.001587)
 131 C  ( 0.000000,  0.000000, -0.005983)
 132 C  ( 0.000000,  0.000000,  0.303861)
 133 C  ( 0.000000,  0.000000,  0.020436)
 134 C  ( 0.000000,  0.000000,  0.020696)
 135 C  ( 0.000000,  0.000000,  0.020707)
 136 C  ( 0.000000,  0.000000, -0.000935)
 137 C  ( 0.000000,  0.000000, -0.000444)
 138 C  ( 0.000000,  0.000000, -0.009895)
 139 C  ( 0.000000,  0.000000, -0.004652)
 140 C  ( 0.000000,  0.000000,  0.002773)
 141 C  ( 0.000000,  0.000000,  0.004990)
 142 C  ( 0.000000,  0.000000,  0.000071)
 143 C  ( 0.000000,  0.000000,  0.004967)
 144 C  ( 0.000000,  0.000000,  0.000710)
 145 C  ( 0.000000,  0.000000,  0.001136)
 146 C  ( 0.000000,  0.000000, -0.000067)
 147 C  ( 0.000000,  0.000000, -0.000033)
 148 C  ( 0.000000,  0.000000,  0.000172)
 149 C  ( 0.000000,  0.000000,  0.000579)
 150 C  ( 0.000000,  0.000000,  0.001038)
 151 C  ( 0.000000,  0.000000,  0.000177)
 152 C  ( 0.000000,  0.000000,  0.002442)
 153 C  ( 0.000000,  0.000000, -0.000129)
 154 C  ( 0.000000,  0.000000, -0.000078)
 155 C  ( 0.000000,  0.000000, -0.000547)
 156 C  ( 0.000000,  0.000000,  0.000034)
 157 C  ( 0.000000,  0.000000,  0.000017)
 158 C  ( 0.000000,  0.000000,  0.000232)
 159 C  ( 0.000000,  0.000000,  0.000673)
 160 C  ( 0.000000,  0.000000, -0.000886)
 161 C  ( 0.000000,  0.000000, -0.000057)
 162 C  ( 0.000000,  0.000000, -0.000057)
 163 C  ( 0.000000,  0.000000, -0.000380)
 164 C  ( 0.000000,  0.000000,  0.000785)
 165 C  ( 0.000000,  0.000000,  0.000854)
 166 C  ( 0.000000,  0.000000,  0.000086)
 167 C  ( 0.000000,  0.000000,  0.000086)
 168 C  ( 0.000000,  0.000000,  0.001511)
 169 C  ( 0.000000,  0.000000, -0.000135)
 170 C  ( 0.000000,  0.000000, -0.000316)
 171 C  ( 0.000000,  0.000000, -0.000030)
 172 C  ( 0.000000,  0.000000,  0.000767)
 173 C  ( 0.000000,  0.000000,  0.000023)
 174 C  ( 0.000000,  0.000000,  0.000949)
 175 C  ( 0.000000,  0.000000,  0.000121)
 176 C  ( 0.000000,  0.000000,  0.002347)
 177 C  ( 0.000000,  0.000000,  0.001861)
 178 C  ( 0.000000,  0.000000, -0.000837)
 179 C  ( 0.000000,  0.000000, -0.000799)
 180 C  ( 0.000000,  0.000000,  0.010332)
 181 C  ( 0.000000,  0.000000,  0.009953)
 182 C  ( 0.000000,  0.000000,  0.129285)
 183 C  ( 0.000000,  0.000000,  0.008560)
 184 C  ( 0.000000,  0.000000, -0.000698)
 185 C  ( 0.000000,  0.000000, -0.000821)
 186 C  ( 0.000000,  0.000000, -0.000795)
 187 C  ( 0.000000,  0.000000, -0.000221)
 188 C  ( 0.000000,  0.000000,  0.000143)
 189 C  ( 0.000000,  0.000000,  0.003521)
 190 C  ( 0.000000,  0.000000,  0.002239)
 191 C  ( 0.000000,  0.000000,  0.002227)
 192 C  ( 0.000000,  0.000000, -0.000545)
 193 C  ( 0.000000,  0.000000, -0.000099)
 194 C  ( 0.000000,  0.000000, -0.000393)
 195 C  ( 0.000000,  0.000000, -0.000090)
 196 C  ( 0.000000,  0.000000,  0.000154)
 197 C  ( 0.000000,  0.000000,  0.000673)
 198 C  ( 0.000000,  0.000000,  0.000021)
 199 C  ( 0.000000,  0.000000,  0.000761)
 200 C  ( 0.000000,  0.000000, -0.000934)
 201 C  ( 0.000000,  0.000000, -0.009875)
 202 C  ( 0.000000,  0.000000, -0.000443)
 203 C  ( 0.000000,  0.000000, -0.004607)
 204 C  ( 0.000000,  0.000000,  0.002759)
 205 C  ( 0.000000,  0.000000,  0.004985)
 206 C  ( 0.000000,  0.000000,  0.004964)
 207 C  ( 0.000000,  0.000000,  0.000072)
 208 C  ( 0.000000,  0.000000, -0.001760)
 209 C  ( 0.000000,  0.000000, -0.001758)
 210 C  ( 0.000000,  0.000000, -0.000907)
 211 C  ( 0.000000,  0.000000,  0.006423)
 212 N  ( 0.000000,  0.000000,  0.094740)
 213 C  ( 0.000000,  0.000000,  0.006260)
 214 C  ( 0.000000,  0.000000,  0.006260)

Energy contributions relative to reference atoms: (reference = -221394.138216)

Kinetic:       +1744.961022
Potential:     -1572.634851
External:        +0.000000
XC:            -2330.505588
Entropy (-ST):   +0.000000
Local:           +2.845946
SIC:             +0.000000
--------------------------
Free energy:   -2155.333472
Extrapolated:  -2155.333472

HYB_GGA_XC_HSE06 + 0.25 * EXX(omega = 0.11 bohr^-1)
Short-range Coulomb: erfc(omega*r)/r (omega = 0.11 bohr^-1)
Spin contamination: 0.173841 electrons
                   Up                     Down
 Band  Eigenvalues  Occupancy  Eigenvalues  Occupancy
    0    -12.15945    1.00000    -12.14314    1.00000
    1    -11.42314    1.00000    -11.36181    1.00000
    2    -11.02748    1.00000    -11.02348    1.00000
    3    -11.02257    1.00000    -11.01976    1.00000
    4    -10.98830    1.00000    -10.97536    1.00000
    5    -10.95318    1.00000    -10.94859    1.00000
    6    -10.89041    1.00000    -10.87518    1.00000
    7    -10.42671    1.00000    -10.38709    1.00000
    8     -9.94573    1.00000     -9.94120    1.00000
    9     -9.93185    1.00000     -9.92897    1.00000
   10     -9.92479    1.00000     -9.92096    1.00000
   11     -9.91214    1.00000     -9.91016    1.00000
   12     -9.89719    1.00000     -9.89234    1.00000
   13     -9.89131    1.00000     -9.87551    1.00000
   14     -9.87314    1.00000     -9.86854    1.00000
   15     -9.85513    1.00000     -9.85108    1.00000
   16     -9.82509    1.00000     -9.80368    1.00000
   17     -9.77262    1.00000     -9.76058    1.00000
   18     -9.63002    1.00000     -9.60120    1.00000
   19     -9.13848    1.00000     -9.11263    1.00000
   20     -8.81622    1.00000     -8.80499    1.00000
   21     -8.80960    1.00000     -8.80221    1.00000
   22     -8.79012    1.00000     -8.78483    1.00000
   23     -8.78369    1.00000     -8.76231    1.00000
   24     -8.76605    1.00000     -8.75618    1.00000
   25     -8.74332    1.00000     -8.73169    1.00000
   26     -8.58856    1.00000     -8.55865    1.00000
   27     -7.97969    1.00000     -7.94100    1.00000
   28     -7.72242    1.00000     -7.71490    1.00000
   29     -7.71382    1.00000     -7.70739    1.00000
   30     -7.69484    1.00000     -7.67913    1.00000
   31     -7.68117    1.00000     -7.67417    1.00000
   32     -7.62994    1.00000     -7.61923    1.00000
   33     -7.33722    1.00000     -7.29897    1.00000
   34     -6.77695    1.00000     -6.76761    1.00000
   35     -6.77582    1.00000     -6.76609    1.00000
   36     -6.74159    1.00000     -6.73814    1.00000
   37     -6.73088    1.00000     -6.72886    1.00000
   38     -6.72448    1.00000     -6.72137    1.00000
   39     -6.72254    1.00000     -6.71770    1.00000
   40     -6.71171    1.00000     -6.70754    1.00000
   41     -6.70906    1.00000     -6.70599    1.00000
   42     -6.70207    1.00000     -6.69782    1.00000
   43     -6.70146    1.00000     -6.69544    1.00000
   44     -6.69732    1.00000     -6.69486    1.00000
   45     -6.68731    1.00000     -6.68002    1.00000
   46     -6.67952    1.00000     -6.67716    1.00000
   47     -6.66660    1.00000     -6.66467    1.00000
   48     -6.66586    1.00000     -6.65525    1.00000
   49     -6.64047    1.00000     -6.62588    1.00000
   50     -6.63565    1.00000     -6.61998    1.00000
   51     -6.62602    1.00000     -6.61627    1.00000
   52     -6.61469    1.00000     -6.60760    1.00000
   53     -6.60566    1.00000     -6.59682    1.00000
   54     -6.55376    1.00000     -6.51660    1.00000
   55     -6.50515    1.00000     -6.48638    1.00000
   56     -6.35850    1.00000     -6.34066    1.00000
   57     -6.16596    1.00000     -6.15213    1.00000
   58     -5.92846    1.00000     -5.92389    1.00000
   59     -5.92465    1.00000     -5.91841    1.00000
   60     -5.87344    1.00000     -5.86788    1.00000
   61     -5.86482    1.00000     -5.85790    1.00000
   62     -5.86078    1.00000     -5.85389    1.00000
   63     -5.85947    1.00000     -5.84876    1.00000
   64     -5.84808    1.00000     -5.84385    1.00000
   65     -5.84420    1.00000     -5.83925    1.00000
   66     -5.84115    1.00000     -5.83761    1.00000
   67     -5.82369    1.00000     -5.81782    1.00000
   68     -5.82184    1.00000     -5.81502    1.00000
   69     -5.80989    1.00000     -5.80313    1.00000
   70     -5.80903    1.00000     -5.80240    1.00000
   71     -5.80035    1.00000     -5.79112    1.00000
   72     -5.77142    1.00000     -5.76588    1.00000
   73     -5.77079    1.00000     -5.76453    1.00000
   74     -5.73994    1.00000     -5.72774    1.00000
   75     -5.73896    1.00000     -5.72029    1.00000
   76     -5.69395    1.00000     -5.68577    1.00000
   77     -5.68142    1.00000     -5.66238    1.00000
   78     -5.62819    1.00000     -5.53356    1.00000
   79     -5.46756    1.00000     -5.41192    1.00000
   80     -4.84460    1.00000     -4.76501    1.00000
   81     -4.21729    1.00000     -4.19562    1.00000
   82     -4.03650    1.00000     -4.02944    1.00000
   83     -4.03398    1.00000     -4.02845    1.00000
   84     -3.99059    1.00000     -3.97992    1.00000
   85     -3.98006    1.00000     -3.96924    1.00000
   86     -3.96338    1.00000     -3.95261    1.00000
   87     -3.96008    1.00000     -3.95219    1.00000
   88     -3.95788    1.00000     -3.94620    1.00000
   89     -3.93780    1.00000     -3.93199    1.00000
   90     -3.91949    1.00000     -3.87318    1.00000
   91     -3.86124    1.00000     -3.83263    1.00000
   92     -3.50794    1.00000     -3.43229    1.00000
   93     -2.64819    1.00000     -2.62076    1.00000
   94     -2.58588    1.00000     -2.58047    1.00000
   95     -2.57741    1.00000     -2.57052    1.00000
   96     -2.55104    1.00000     -2.54248    1.00000
   97     -2.54521    1.00000     -2.53554    1.00000
   98     -2.50391    1.00000     -2.49506    1.00000
   99     -2.29631    1.00000     -2.25374    1.00000
  100     -2.13105    1.00000     -2.12246    1.00000
  101     -2.11647    1.00000     -2.10587    1.00000
  102     -2.03610    1.00000     -2.03308    1.00000
  103     -2.02589    1.00000     -2.02445    1.00000
  104     -2.02475    1.00000     -2.02269    1.00000
  105     -2.02371    1.00000     -2.01436    1.00000
  106     -2.01576    1.00000     -2.01391    1.00000
  107     -2.01557    1.00000     -2.01099    1.00000
  108     -2.00029    1.00000     -1.99811    1.00000
  109     -1.99638    1.00000     -1.99061    1.00000
  110     -1.99305    1.00000     -1.98880    1.00000
  111     -1.97442    1.00000     -1.97156    1.00000
  112     -1.96191    1.00000     -1.95122    1.00000
  113     -1.95377    1.00000     -1.94898    1.00000
  114     -1.91611    1.00000     -1.90339    1.00000
  115     -1.90704    1.00000     -1.88629    1.00000
  116     -1.89054    1.00000     -1.88151    1.00000
  117     -1.87934    1.00000     -1.86694    1.00000
  118     -1.86251    1.00000     -1.85600    1.00000
  119     -1.86155    1.00000     -1.82599    1.00000
  120     -1.83766    1.00000     -1.82566    1.00000
  121     -1.79728    1.00000     -1.78255    1.00000
  122     -1.77831    1.00000     -1.77276    1.00000
  123     -1.75646    1.00000     -1.74808    1.00000
  124     -1.74540    1.00000     -1.74048    1.00000
  125     -1.73622    1.00000     -1.72793    1.00000
  126     -1.72095    1.00000     -1.71538    1.00000
  127     -1.71295    1.00000     -1.70770    1.00000
  128     -1.70898    1.00000     -1.70432    1.00000
  129     -1.70368    1.00000     -1.69869    1.00000
  130     -1.70301    1.00000     -1.69287    1.00000
  131     -1.69818    1.00000     -1.68452    1.00000
  132     -1.68947    1.00000     -1.68282    1.00000
  133     -1.67767    1.00000     -1.67174    1.00000
  134     -1.67039    1.00000     -1.66394    1.00000
  135     -1.66032    1.00000     -1.64750    1.00000
  136     -1.65334    1.00000     -1.64117    1.00000
  137     -1.65232    1.00000     -1.64000    1.00000
  138     -1.63735    1.00000     -1.61875    1.00000
  139     -1.62240    1.00000     -1.61172    1.00000
  140     -1.60769    1.00000     -1.60257    1.00000
  141     -1.59982    1.00000     -1.58400    1.00000
  142     -1.57990    1.00000     -1.54802    1.00000
  143     -1.39580    1.00000     -1.36754    1.00000
  144     -1.29253    1.00000     -1.21322    1.00000
  145     -1.22537    1.00000     -1.18377    1.00000
  146     -0.85766    1.00000     -0.82605    1.00000
  147     -0.59616    1.00000     -0.57961    1.00000
  148     -0.58201    1.00000     -0.57286    1.00000
  149     -0.57992    1.00000     -0.55487    1.00000
  150     -0.53179    1.00000     -0.52527    1.00000
  151     -0.52211    1.00000     -0.51732    1.00000
  152     -0.51395    1.00000     -0.50842    1.00000
  153     -0.49999    1.00000     -0.49138    1.00000
  154     -0.48009    1.00000     -0.47227    1.00000
  155     -0.47778    1.00000     -0.47096    1.00000
  156     -0.37476    1.00000     -0.28319    1.00000
  157     -0.28112    1.00000     -0.22333    1.00000
  158      0.67863    1.00000      0.79980    1.00000
  159      1.11219    1.00000      1.12983    1.00000
  160      1.12699    1.00000      1.14052    1.00000
  161      1.15816    1.00000      1.17917    1.00000
  162      1.22960    1.00000      1.24727    1.00000
  163      1.25552    1.00000      1.26523    1.00000
  164      1.26079    1.00000      1.26667    1.00000
  165      1.26209    1.00000      1.26752    1.00000
  166      1.26753    1.00000      1.27135    1.00000
  167      1.27350    1.00000      1.27695    1.00000
  168      1.28036    1.00000      1.29101    1.00000
  169      1.28895    1.00000      1.29389    1.00000
  170      1.28981    1.00000      1.29420    1.00000
  171      1.30874    1.00000      1.31224    1.00000
  172      1.31329    1.00000      1.31704    1.00000
  173      1.32576    1.00000      1.33512    1.00000
  174      1.33873    1.00000      1.35062    1.00000
  175      1.43078    1.00000      1.45224    1.00000
  176      1.44071    1.00000      1.46262    1.00000
  177      1.44384    1.00000      1.46794    1.00000
  178      1.46549    1.00000      1.48954    1.00000
  179      1.78693    1.00000      1.80261    1.00000
  180      1.79386    1.00000      1.80615    1.00000
  181      1.82954    1.00000      1.86980    1.00000
  182      1.92148    1.00000      1.92579    1.00000
  183      1.92172    1.00000      1.92692    1.00000
  184      1.92502    1.00000      1.92972    1.00000
  185      1.92602    1.00000      1.93896    1.00000
  186      1.93651    1.00000      1.94364    1.00000
  187      1.93693    1.00000      1.94658    1.00000
  188      1.94324    1.00000      1.94697    1.00000
  189      1.94976    1.00000      1.95630    1.00000
  190      1.95458    1.00000      1.96081    1.00000
  191      1.96164    1.00000      1.96740    1.00000
  192      1.96498    1.00000      1.97596    1.00000
  193      1.96951    1.00000      1.97967    1.00000
  194      1.97279    1.00000      1.98995    1.00000
  195      1.98699    1.00000      1.99684    1.00000
  196      2.00391    1.00000      2.01595    1.00000
  197      2.00759    1.00000      2.01773    1.00000
  198      2.03094    1.00000      2.04401    1.00000
  199      2.03961    1.00000      2.04845    1.00000
  200      2.19860    1.00000      2.29235    1.00000
  201      2.29979    1.00000      2.35612    1.00000
  202      2.81083    1.00000      2.82685    1.00000
  203      2.82373    1.00000      2.84039    1.00000
  204      2.85338    1.00000      2.89225    1.00000
  205      2.94469    1.00000      2.94815    1.00000
  206      2.94961    1.00000      2.95512    1.00000
  207      2.95126    1.00000      2.95558    1.00000
  208      2.95884    1.00000      2.96264    1.00000
  209      2.95898    1.00000      2.96274    1.00000
  210      2.96332    1.00000      2.96502    1.00000
  211      2.97468    1.00000      2.97669    1.00000
  212      2.98352    1.00000      2.98658    1.00000
  213      2.98693    1.00000      2.99209    1.00000
  214      3.00339    1.00000      3.00812    1.00000
  215      3.00619    1.00000      3.01183    1.00000
  216      3.04821    1.00000      3.05711    1.00000
  217      3.06695    1.00000      3.07648    1.00000
  218      3.07495    1.00000      3.08112    1.00000
  219      3.07855    1.00000      3.09555    1.00000
  220      3.08977    1.00000      3.10042    1.00000
  221      3.09577    1.00000      3.11918    1.00000
  222      3.14107    1.00000      3.15354    1.00000
  223      3.14812    1.00000      3.16944    1.00000
  224      3.19305    1.00000      3.21093    1.00000
  225      3.20144    1.00000      3.21447    1.00000
  226      3.24520    1.00000      3.29615    1.00000
  227      3.39692    1.00000      3.41094    1.00000
  228      3.41029    1.00000      3.42050    1.00000
  229      3.48344    1.00000      3.50341    1.00000
  230      3.52800    1.00000      3.53215    1.00000
  231      3.52993    1.00000      3.53524    1.00000
  232      3.54303    1.00000      3.55423    1.00000
  233      3.54941    1.00000      3.55797    1.00000
  234      3.56001    1.00000      3.56535    1.00000
  235      3.56059    1.00000      3.56662    1.00000
  236      3.56512    1.00000      3.57215    1.00000
  237      3.56663    1.00000      3.58424    1.00000
  238      3.58022    1.00000      3.58520    1.00000
  239      3.58074    1.00000      3.59195    1.00000
  240      3.58314    1.00000      3.59473    1.00000
  241      3.58882    1.00000      3.59718    1.00000
  242      3.59825    1.00000      3.60747    1.00000
  243      3.60026    1.00000      3.61383    1.00000
  244      3.60583    1.00000      3.62570    1.00000
  245      3.61459    1.00000      3.63276    1.00000
  246      3.62811    1.00000      3.63397    1.00000
  247      3.62879    1.00000      3.64585    1.00000
  248      3.64225    1.00000      3.65184    1.00000
  249      3.64640    1.00000      3.65230    1.00000
  250      3.65848    1.00000      3.67040    1.00000
  251      3.68575    1.00000      3.71051    1.00000
  252      3.70346    1.00000      3.73096    1.00000
  253      3.97985    1.00000      4.04322    1.00000
  254      4.04774    1.00000      4.12166    1.00000
  255      4.07940    1.00000      4.12577    1.00000
  256      4.59414    1.00000      4.60803    1.00000
  257      4.59714    1.00000      4.60931    1.00000
  258      4.67131    1.00000      4.69068    1.00000
  259      4.67976    1.00000      4.70238    1.00000
  260      4.70992    1.00000      4.74112    1.00000
  261      4.72612    1.00000      4.74247    1.00000
  262      4.79476    1.00000      4.91516    1.00000
  263      5.15121    1.00000      5.18177    1.00000
  264      5.17852    1.00000      5.19597    1.00000
  265      5.26727    1.00000      5.28253    1.00000
  266      5.28733    1.00000      5.29258    1.00000
  267      5.28843    1.00000      5.29608    1.00000
  268      5.30532    1.00000      5.31214    1.00000
  269      5.31227    1.00000      5.32203    1.00000
  270      5.32161    1.00000      5.32693    1.00000
  271      5.32792    1.00000      5.35922    1.00000
  272      5.39498    1.00000      5.41908    1.00000
  273      5.41258    1.00000      5.42772    1.00000
  274      5.55201    1.00000      5.56418    1.00000
  275      5.56021    1.00000      5.57364    1.00000
  276      5.66890    1.00000      5.71856    1.00000
  277      5.73616    1.00000      5.75225    1.00000
  278      5.74376    1.00000      5.75301    1.00000
  279      5.74425    1.00000      5.75794    1.00000
  280      5.75061    1.00000      5.77156    1.00000
  281      5.76024    1.00000      5.77228    1.00000
  282      5.76617    1.00000      5.78469    1.00000
  283      5.79492    1.00000      5.80554    1.00000
  284      5.82057    1.00000      5.83550    1.00000
  285      5.82826    1.00000      5.83875    1.00000
  286      5.83512    1.00000      5.85790    1.00000
  287      5.94131    1.00000      5.95849    1.00000
  288      5.97544    1.00000      5.99037    1.00000
  289      6.00077    1.00000      6.00707    1.00000
  290      6.02738    1.00000      6.03177    1.00000
  291      6.03329    1.00000      6.03871    1.00000
  292      6.03407    1.00000      6.03921    1.00000
  293      6.04921    1.00000      6.05303    1.00000
  294      6.04975    1.00000      6.05455    1.00000
  295      6.05461    1.00000      6.06186    1.00000
  296      6.05917    1.00000      6.06415    1.00000
  297      6.06247    1.00000      6.06633    1.00000
  298      6.07093    1.00000      6.07361    1.00000
  299      6.07467    1.00000      6.07720    1.00000
  300      6.07652    1.00000      6.08165    1.00000
  301      6.08098    1.00000      6.08792    1.00000
  302      6.10932    1.00000      6.11459    1.00000
  303      6.11125    1.00000      6.12310    1.00000
  304      6.12344    1.00000      6.13413    1.00000
  305      6.12655    1.00000      6.14109    1.00000
  306      6.13327    1.00000      6.14172    1.00000
  307      6.13980    1.00000      6.14938    1.00000
  308      6.14051    1.00000      6.15365    1.00000
  309      6.15040    1.00000      6.16491    1.00000
  310      6.19742    1.00000      6.20609    1.00000
  311      6.21099    1.00000      6.21973    1.00000
  312      6.23868    1.00000      6.25123    1.00000
  313      6.26805    1.00000      6.27354    1.00000
  314      6.27031    1.00000      6.27535    1.00000
  315      6.27430    1.00000      6.27586    1.00000
  316      6.27448    1.00000      6.28288    1.00000
  317      6.27927    1.00000      6.28488    1.00000
  318      6.28246    1.00000      6.28765    1.00000
  319      6.28678    1.00000      6.29288    1.00000
  320      6.28852    1.00000      6.30014    1.00000
  321      6.29467    1.00000      6.30056    1.00000
  322      6.29707    1.00000      6.30671    1.00000
  323      6.30180    1.00000      6.30986    1.00000
  324      6.30862    1.00000      6.31724    1.00000
  325      6.31525    1.00000      6.32366    1.00000
  326      6.32336    1.00000      6.32989    1.00000
  327      6.32609    1.00000      6.33070    1.00000
  328      6.32984    1.00000      6.33505    1.00000
  329      6.33079    1.00000      6.33549    1.00000
  330      6.33560    1.00000      6.34273    1.00000
  331      6.33822    1.00000      6.35243    1.00000
  332      6.34473    1.00000      6.35421    1.00000
  333      6.34758    1.00000      6.35588    1.00000
  334      6.35010    1.00000      6.36471    1.00000
  335      6.35252    1.00000      6.36570    1.00000
  336      6.36374    1.00000      6.37031    1.00000
  337      6.36726    1.00000      6.37524    1.00000
  338      6.37549    1.00000      6.37890    1.00000
  339      6.37909    1.00000      6.39615    1.00000
  340      6.38591    1.00000      6.40254    1.00000
  341      6.39367    1.00000      6.41084    1.00000
  342      6.41011    1.00000      6.41788    1.00000
  343      6.41380    1.00000      6.42235    1.00000
  344      6.42111    1.00000      6.43053    1.00000
  345      6.43760    1.00000      6.45918    1.00000
  346      6.44227    1.00000      6.46792    1.00000
  347      6.45510    1.00000      6.47697    1.00000
  348      6.46957    1.00000      6.49809    1.00000
  349      6.49280    1.00000      6.50669    1.00000
  350      6.49922    1.00000      6.51522    1.00000
  351      6.50484    1.00000      6.53424    1.00000
  352      6.55049    1.00000      6.57202    1.00000
  353      6.64376    1.00000      6.68140    1.00000
  354      6.65523    1.00000      6.70009    1.00000
  355      6.89054    1.00000      6.92747    1.00000
  356      6.91337    1.00000      6.94310    1.00000
  357      6.92539    1.00000      6.94598    1.00000
  358      7.09414    1.00000      7.10422    1.00000
  359      7.09570    1.00000      7.10425    1.00000
  360      7.17088    1.00000      7.17638    1.00000
  361      7.17199    1.00000      7.17783    1.00000
  362      7.18004    1.00000      7.18333    1.00000
  363      7.18469    1.00000      7.18714    1.00000
  364      7.20215    1.00000      7.21728    1.00000
  365      7.20506    1.00000      7.22298    1.00000
  366      7.22018    1.00000      7.22753    1.00000
  367      7.22197    1.00000      7.22856    1.00000
  368      7.23738    1.00000      7.24468    1.00000
  369      7.23964    1.00000      7.25462    1.00000
  370      7.25348    1.00000      7.26737    1.00000
  371      7.25938    1.00000      7.27759    1.00000
  372      7.27335    1.00000      7.28211    1.00000
  373      7.28850    1.00000      7.30082    1.00000
  374      7.29277    1.00000      7.31729    1.00000
  375      7.30603    1.00000      7.31954    1.00000
  376      7.30889    1.00000      7.34561    1.00000
  377      7.39293    1.00000      7.43073    1.00000
  378      7.44939    1.00000      7.48925    1.00000
  379      7.93439    1.00000      8.10025    1.00000
  380      8.19905    1.00000      8.35335    1.00000
  381      8.28846    1.00000      8.36342    1.00000
  382      8.50548    1.00000      8.71918    1.00000
  383      8.69390    1.00000      8.72679    1.00000
  384      8.70946    1.00000      8.76930    1.00000
  385      8.77429    1.00000      8.78217    1.00000
  386      8.78340    1.00000      8.78986    1.00000
  387      8.78845    1.00000      8.79531    1.00000
  388      8.79095    1.00000      8.81447    1.00000
  389      8.81075    1.00000      8.82875    1.00000
  390      8.82686    1.00000      8.83877    1.00000
  391      8.82779    1.00000      8.85746    1.00000
  392      8.87497    1.00000      8.88006    1.00000
  393      8.87513    1.00000      8.88335    1.00000
  394      8.90293    1.00000      8.91310    1.00000
  395      8.95785    1.00000      8.96355    1.00000
  396      8.96735    1.00000      8.97297    1.00000
  397      9.02017    1.00000      9.03432    1.00000
  398      9.03108    1.00000      9.04074    1.00000
  399      9.03367    1.00000      9.04138    1.00000
  400      9.04133    1.00000      9.05034    1.00000
  401      9.04397    1.00000      9.05987    1.00000
  402      9.05337    1.00000      9.06720    1.00000
  403      9.05704    1.00000      9.06757    1.00000
  404      9.06844    1.00000      9.07750    1.00000
  405      9.07008    1.00000      9.09247    1.00000
  406      9.08465    1.00000      9.10152    1.00000
  407      9.10382    1.00000      9.11306    1.00000
  408      9.12024    1.00000      9.13503    1.00000
  409      9.14225    1.00000      9.16437    1.00000
  410      9.15486    1.00000      9.17063    1.00000
  411      9.16102    1.00000      9.17891    1.00000
  412      9.16395    1.00000      9.18033    1.00000
  413      9.59626    1.00000      9.77737    1.00000
  414      9.77445    1.00000      9.82979    1.00000
  415      9.80169    1.00000      9.84322    1.00000
  416      9.86236    1.00000     10.03833    1.00000
  417     10.02306    1.00000     10.04304    1.00000
  418     10.03331    1.00000     10.06103    1.00000
  419     10.05701    1.00000     10.08981    1.00000
  420     10.08137    1.00000     10.09045    1.00000
  421     10.08401    1.00000     10.09788    1.00000
  422     10.08933    1.00000     10.15365    1.00000
  423     10.13984    1.00000     10.18023    1.00000
  424     10.15450    1.00000     10.20632    1.00000
  425     10.18232    1.00000     10.40529    1.00000
  426     11.09891    1.00000     11.48234    1.00000
  427     11.43542    1.00000     11.50004    1.00000
  428     11.44879    1.00000     11.51920    1.00000
  429     11.86325    1.00000     13.69940    0.00000
  430     13.28495    1.00000     15.36520    1.00000
  431     14.11548    1.00000     16.08413    0.00000
  432     17.04487    0.00000     17.05040    0.00000
  433     17.05161    0.00000     17.05534    0.00000
  434     17.05806    0.00000     17.07600    0.00000
  435     17.10148    0.00000     17.11670    0.00000
  436     17.10793    0.00000     17.12036    0.00000
  437     17.12721    0.00000     17.13953    0.00000
  438     17.61505    0.00000     17.62751    0.00000
  439     17.69308    0.00000     17.70053    0.00000
  440     17.69367    0.00000     17.70195    0.00000
  441     17.71233    0.00000     17.71701    0.00000
  442     17.71430    0.00000     17.72220    0.00000
  443     17.78737    0.00000     17.80279    0.00000

Fermi level: inf

Could not find a gap

Forces in eV/Ang:
  0 C    -0.01166   -0.00582   -0.01160
  1 C    -0.00551   -0.00138   -0.00345
  2 C    -0.00345   -0.00135   -0.00548
  3 C    -0.00239   -0.00515   -0.00237
  4 C     0.00127    0.00753    0.00129
  5 C     0.00757    0.00877    0.00760
  6 C     0.00489    0.00534    0.00274
  7 C     0.00275    0.00536    0.00488
  8 C    -0.00285    0.00483    0.00114
  9 C     0.00147   -0.00230   -0.00817
 10 C    -0.00188   -0.00194   -0.00315
 11 C    -0.00203    0.00225    0.01262
 12 C     0.02099   -0.01087   -0.02488
 13 C     0.00588    0.00286   -0.00132
 14 C     0.02282   -0.01508    0.03968
 15 C     0.00758    0.00502    0.00267
 16 C    -0.03266   -0.04021   -0.08278
 17 C    -0.00562   -0.00180   -0.01206
 18 C     0.00302   -0.02435   -0.01971
 19 C    -0.00008    0.00175   -0.01340
 20 C    -0.00144    0.00319    0.00572
 21 C    -0.01422   -0.00732    0.04237
 22 C     0.00040    0.00168    0.00351
 23 C    -0.01316   -0.00912   -0.00317
 24 C    -0.00097    0.00288   -0.00093
 25 C     0.01187   -0.00044    0.00497
 26 C     0.00500   -0.00037    0.01188
 27 C    -0.00288   -0.00453   -0.00290
 28 C     0.00689    0.00425    0.00684
 29 C     0.00097    0.00244    0.00093
 30 C     0.02064    0.06235   -0.01681
 31 C    -0.01661    0.06205    0.02047
 32 C    -0.00166   -0.00044   -0.00384
 33 C    -0.05507    0.01882    0.00809
 34 C    -0.01444   -0.00576   -0.02137
 35 C    -0.00888   -0.00583   -0.01253
 36 C     0.00799   -0.00440    0.02131
 37 C     0.00848    0.01112    0.01223
 38 C    -0.01100   -0.02034   -0.00558
 39 C    -0.01664   -0.01919    0.00151
 40 C     0.04269   -0.04521   -0.06373
 41 C     0.00469    0.04083    0.02958
 42 C    -0.00418    0.02392    0.00273
 43 C    -0.00000    0.00274    0.00568
 44 C     0.00137    0.00722   -0.00624
 45 C    -0.00575   -0.00972   -0.02002
 46 C     0.01990   -0.02109   -0.00038
 47 C     0.01287   -0.02721   -0.00298
 48 C    -0.03688   -0.09124   -0.03690
 49 C    -0.01492   -0.00568    0.00313
 50 C     0.00314   -0.00570   -0.01489
 51 C     0.00340   -0.09461    0.00325
 52 C     0.01520    0.06768    0.01522
 53 C    -0.00146    0.04912   -0.00140
 54 C     0.00427    0.00717    0.00039
 55 C     0.00037    0.00719    0.00430
 56 C     0.08110   -0.10919   -0.07715
 57 C    -0.00162    0.02649    0.03661
 58 C    -0.00485   -0.00680    0.01333
 59 C    -0.00818    0.01273    0.00160
 60 C    -0.01564   -0.01978   -0.00070
 61 C    -0.01599   -0.02403   -0.01172
 62 C     0.01146   -0.00032   -0.01398
 63 C     0.00379    0.01737   -0.01407
 64 C    -0.02813    0.00076    0.00694
 65 C     0.01975   -0.01125   -0.01253
 66 C    -0.00314    0.01516    0.00338
 67 C     0.00060    0.01316    0.00472
 68 C     0.02368   -0.02233   -0.00005
 69 C     0.03035   -0.01556   -0.01107
 70 C     0.01032    0.02197    0.02063
 71 C    -0.00348   -0.00566    0.01424
 72 C     0.00117    0.00483   -0.00281
 73 C    -0.00315   -0.00192   -0.00189
 74 C    -0.00807   -0.00229    0.00139
 75 C     0.01264    0.00216   -0.00206
 76 C    -0.02496   -0.01090    0.02101
 77 C    -0.00132    0.00290    0.00587
 78 C     0.00267    0.00505    0.00756
 79 C     0.03929   -0.01479    0.02256
 80 C     0.00220   -0.00216    0.00221
 81 C    -0.00438   -0.00893    0.00559
 82 C     0.00558   -0.00893   -0.00429
 83 C    -0.00427    0.01357   -0.00431
 84 C    -0.00056    0.00181   -0.00069
 85 C    -0.01060    0.01026   -0.01065
 86 C    -0.00621    0.00860   -0.00439
 87 C    -0.00424    0.00868   -0.00623
 88 C     0.02789   -0.03360    0.05978
 89 C    -0.00205   -0.00189    0.00706
 90 C     0.00580    0.00506    0.01344
 91 C    -0.01941   -0.01860    0.02508
 92 C     0.01420    0.01112   -0.00787
 93 C     0.00453    0.00883   -0.01592
 94 C     0.00645    0.00815   -0.00424
 95 C    -0.01432   -0.01386   -0.00050
 96 C    -0.00380   -0.00039   -0.00166
 97 C    -0.02134   -0.00570   -0.01447
 98 C     0.00804    0.01870   -0.05491
 99 C    -0.01249   -0.00573   -0.00892
100 C     0.02138   -0.00437    0.00809
101 C     0.01220    0.01102    0.00842
102 C     0.00156   -0.01928   -0.01662
103 C    -0.00549   -0.02037   -0.01099
104 C    -0.00630   -0.00298   -0.00631
105 C    -0.03311    0.03373   -0.03460
106 C    -0.03467    0.03399   -0.03317
107 C     0.01227   -0.03945    0.01261
108 C     0.01458   -0.02761    0.01443
109 C     0.02208   -0.00053    0.02196
110 C    -0.08506   -0.05014    0.05733
111 C     0.05773   -0.04995   -0.08490
112 C    -0.02766   -0.03285   -0.00076
113 C     0.03781    0.02224   -0.01167
114 C     0.28082    0.29082   -0.14165
115 C     0.01893    0.02798   -0.01974
116 C     0.10497   -0.04626    0.12915
117 C    -0.05667   -0.02284    0.03961
118 C    -0.12752    0.25786    0.17423
119 C    -0.91429    0.34414    1.88998
120 C    -0.07675   -0.10875    0.08073
121 C     0.01333   -0.00680   -0.00485
122 C     0.03646    0.02648   -0.00172
123 C     0.00154    0.01275   -0.00808
124 C    -0.00064   -0.01970   -0.01556
125 C    -0.01165   -0.02401   -0.01589
126 C    -0.01403    0.01737    0.00384
127 C    -0.01378   -0.00037    0.01139
128 C     0.04546   -0.13174    0.04537
129 C    -0.03198   -0.00573    0.00844
130 C     0.00864   -0.00589   -0.03192
131 C     0.13090   -0.76121    0.13057
132 C    -0.37392    1.37821   -0.36781
133 C     0.09525    0.30561    0.09517
134 C     0.05625    0.00502   -0.14659
135 C    -0.14721    0.00458    0.05663
136 C     0.00906    0.01062    0.00831
137 C     0.01303    0.03082   -0.03035
138 C    -0.02875   -0.02844    0.20997
139 C     0.01175   -0.79115    0.00062
140 C    -0.05655   -0.01416    0.03720
141 C     0.01229   -0.05434    0.02136
142 C    -0.01032   -0.01291    0.00908
143 C     0.03044    0.06353   -0.01014
144 C    -0.08272   -0.04022   -0.03269
145 C    -0.01933   -0.02437    0.00286
146 C    -0.01214   -0.00182   -0.00553
147 C    -0.01346    0.00180   -0.00010
148 C     0.00567    0.00315   -0.00145
149 C     0.04234   -0.00740   -0.01426
150 C    -0.00350   -0.00933   -0.01335
151 C     0.00347    0.00165    0.00039
152 C     0.06002   -0.03393    0.02812
153 C     0.01335    0.00499    0.00588
154 C     0.00709   -0.00193   -0.00215
155 C     0.02499   -0.01867   -0.01950
156 C    -0.00786    0.01117    0.01414
157 C    -0.01597    0.00877    0.00450
158 C    -0.00052   -0.01380   -0.01440
159 C    -0.00433    0.00806    0.00647
160 C     0.00296    0.03683    0.00294
161 C    -0.00780    0.00710    0.00081
162 C     0.00071    0.00709   -0.00772
163 C    -0.00322    0.01762   -0.00313
164 C     0.02155    0.01477    0.02162
165 C    -0.00490    0.01192   -0.00486
166 C     0.00730    0.01266    0.00144
167 C     0.00142    0.01274    0.00722
168 C    -0.06303   -0.04456    0.04197
169 C     0.00267    0.02391   -0.00413
170 C     0.02946    0.04058    0.00451
171 C     0.00570    0.00264   -0.00004
172 C    -0.00633    0.00729    0.00134
173 C    -0.02006   -0.00969   -0.00573
174 C    -0.00292   -0.02723    0.01301
175 C    -0.00043   -0.02095    0.01987
176 C    -0.00026   -0.03325   -0.02814
177 C    -0.13959    0.29147    0.28110
178 C    -0.01184    0.02241    0.03800
179 C    -0.01976    0.02809    0.01889
180 C     0.13027   -0.04736    0.10671
181 C     0.03848   -0.02359   -0.05750
182 C     1.89355    0.34053   -0.91163
183 C     0.17483    0.25901   -0.12820
184 C     0.01202    0.07579    0.01219
185 C    -0.33186    0.21518   -0.20802
186 C    -0.20752    0.21500   -0.33593
187 C    -0.01530   -0.00293   -0.01489
188 C    -0.00665   -0.01642   -0.00669
189 C    -0.03442    0.01767   -0.03425
190 C    -0.03129   -0.04868    0.08122
191 C     0.08130   -0.04893   -0.03106
192 C     0.00695    0.00077   -0.02792
193 C     0.00329    0.01517   -0.00305
194 C    -0.01255   -0.01118    0.01976
195 C     0.00466    0.01315    0.00069
196 C    -0.00009   -0.02238    0.02381
197 C    -0.01107   -0.01552    0.03019
198 C     0.01428   -0.00568   -0.00345
199 C     0.02058    0.02199    0.01034
200 C     0.00827    0.01072    0.00971
201 C     0.21234   -0.02973   -0.02788
202 C    -0.03066    0.03090    0.01303
203 C    -0.00014   -0.79276    0.01236
204 C     0.03732   -0.01408   -0.05700
205 C     0.02108   -0.05454    0.01231
206 C    -0.01031    0.06365    0.03029
207 C     0.00899   -0.01306   -0.01036
208 C    -0.37144   -0.04562    0.04003
209 C     0.03996   -0.04597   -0.37199
210 C    -0.03626   -0.47905   -0.03654
211 C    -0.03741    0.23103   -0.03728
212 N    -0.57107   -0.45313   -0.57060
213 C     0.20968   -0.01006   -0.03150
214 C    -0.03166   -0.01008    0.20983

Input parameters:
  occupations: {name: mom,
                numbers: [[1. 1. 1. ... 0. 0. 0.]
 [1. 1. 1. ... 0. 0. 0.]],
                update_numbers: True,
                use_fixed_occupations: False,
                use_projections: True}

Excited-state calculation with Maximum Overlap Method
  Gaussian smearing of holes and excited electrons: off

Input parameters:
  eigensolver: {blocksize: 1,
                converge_unocc: False,
                excited_state: True,
                functional: {'name': 'ks'},
                grad_tol_inner_loop: 0.0001,
                grad_tol_pz_localization: 0.0005,
                linesearch_algo: {'name': 'max-step', 'max_step': 0.2},
                localization_tol: None,
                localizationseed: None,
                localizationtype: None,
                max_step_inner_loop: 0.2,
                maxiter_inner_loop: 6,
                maxiter_pz_localization: 50,
                maxiter_unocc: 333,
                momevery: 10,
                name: etdm-fdpw,
                need_init_orbs: False,
                need_localization: False,
                printinnerloop: False,
                restart_canonical: True,
                restartevery_iloop_notconverged: 3,
                searchdir_algo: {'name': 'l-bfgs', 'memory': 3},
                use_prec: True}

Initialize ...

species:
  C:
    name: Carbon
    id: 4aa54d4b901d75f77cc0ea3eec22967b
    Z: 6.0
    valence: 4
    core: 2
    charge: 0.0
    file: /work/home/ac2uoma125/anaconda3/envs/gpaw2460/share/gpaw/C.PBE.gz
    compensation charges: {type: gauss,
                           rc: 0.20,
                           lmax: 2}
    cutoffs: {filter: 1.14,
              core: 1.14}
    projectors:
      #              energy  rcut
      - 2s(2.00)   -13.751   0.635
      - 2p(2.00)    -5.284   0.635
      -  s          13.461   0.635
      -  p          21.927   0.635
      -  d           0.000   0.635
  
    # Using partial waves for C as LCAO basis

  N:
    name: Nitrogen
    id: f7500608b86eaa90eef8b1d9a670dc53
    Z: 7.0
    valence: 5
    core: 2
    charge: 0.0
    file: /work/home/ac2uoma125/anaconda3/envs/gpaw2460/share/gpaw/N.PBE.gz
    compensation charges: {type: gauss,
                           rc: 0.18,
                           lmax: 2}
    cutoffs: {filter: 1.11,
              core: 0.96}
    projectors:
      #              energy  rcut
      - 2s(2.00)   -18.583   0.603
      - 2p(3.00)    -7.089   0.529
      -  s           8.629   0.603
      -  p          20.123   0.529
      -  d           0.000   0.577
  
    # Using partial waves for N as LCAO basis

Reference energy: -221394.138216  # eV

Spin-polarized calculation.
Magnetic moment: 2.000000

Convergence criteria:
 Maximum [total energy] change in last 3 cyles: 0.0005 eV / valence electron
 Maximum integral of absolute [dens]ity change: 0.0001 electrons / valence electron
 Maximum integral of absolute [eigenst]ate change: 4e-08 eV^2 / valence electron
 Maximum number of scf [iter]ations: 333
 (Square brackets indicate name in SCF output, whereas a 'c' in
 the SCF output indicates the quantity has converged.)

Eigensolver
   Direct minimisation using exponential transformation.
       Search direction: L-BFGS algorithm
       Line search: step size equals one
       Preconditioning: True
       Orbital-density self-interaction corrections: ks
       WARNING: do not use it for metals as occupation numbers are
                not found variationally
 

Density mixing:
  Method: difference
  Backend: no-mixing
  Linear mixing parameter: 0
  old densities: 0
  Damping of long wavelength oscillations: 0 

XC parameters: HYB_GGA_XC_HSE06 + 0.25 * EXX(omega = 0.11 bohr^-1)
  Short-range Coulomb: erfc(omega*r)/r (omega = 0.11 bohr^-1)

Memory estimate:
  Process memory now: 5142.01 MiB
Attribute error: AttributeError("'HybridXC' object has no attribute 'estimate_memory'")
Some object probably lacks estimate_memory() method
Memory breakdown may be incomplete
  Calculator: 5.42 MiB
    Density: 3.82 MiB
      Arrays: 2.16 MiB
      Localized functions: 1.67 MiB
      Mixer: 0.00 MiB
    Hamiltonian: 1.60 MiB
      Arrays: 1.60 MiB

Total number of cores used: 32
Domain decomposition: 4 x 4 x 2

Number of atoms: 215
Number of atomic orbitals: 860
Number of bands in calculation: 444
Number of valence electrons: 862
Bands to converge: occupied

... initialized

Initializing position-dependent things.

Density initialized from wave functions
        .--------C----------------.  
       /|           C             |  
      / | C       C  C C   C      |  
     / C|    C  C    C  C     C   |  
    /  C|C    C C C    C CCC   C  |  
   /    C C C    C C      N CC    |  
  /  C C| CCCCCC  C C C    C CC   |  
 *    C C   CCCCC    C C C    C C |  
 |C    CCC C  CCCCC C  CCCCC   C C|  
 | C C  CCC C    CCC C C  CCC     C  
 |  C C | CCCC C  CCCCC C  CC C   |  
 C   CC C C C C C    CCC C   CC   |  
 |    CCCC C C CCCCC C CCCC C  C  |  
 |     C.CC-C-C-C-CC-C-C-C-C-C----.  
 |  C C/C CCCC   C C CC C C CCC  /   
 |   CC     C CC    C C      C  /    
 |   /C C      CCCC    C C     /     
 |  /    C C      C C      CC /      
 | /C       C        C C     /       
 |/                     C   /        
 C----------------C--------*         

Positions:
   0 C      0.002372    0.002372    0.002372    ( 0.0000,  0.0000,  0.0000)
   1 C     -0.000177    1.774292    1.774292    ( 0.0000,  0.0000,  0.0000)
   2 C      1.774292    1.774292   -0.000177    ( 0.0000,  0.0000,  0.0000)
   3 C      1.774292   -0.000177    1.774292    ( 0.0000,  0.0000,  0.0000)
   4 C      2.660291    0.886016    2.660291    ( 0.0000,  0.0000,  0.0000)
   5 C      0.887932    0.887932    0.887932    ( 0.0000,  0.0000,  0.0000)
   6 C      0.886016    2.660291    2.660291    ( 0.0000,  0.0000,  0.0000)
   7 C      2.660291    2.660291    0.886016    ( 0.0000,  0.0000,  0.0000)
   8 C     -0.001720   -0.001720    3.550221    ( 0.0000,  0.0000,  0.0000)
   9 C     -0.001514    1.772014    5.320396    ( 0.0000,  0.0000,  0.0000)
  10 C      1.772639    1.772639    3.546938    ( 0.0000,  0.0000,  0.0000)
  11 C      1.772014   -0.001514    5.320396    ( 0.0000,  0.0000,  0.0000)
  12 C      2.658540    0.886445    6.206956    ( 0.0000,  0.0000,  0.0000)
  13 C      0.885452    0.885452    4.434520    ( 0.0000,  0.0000,  0.0000)
  14 C      0.886445    2.658540    6.206956    ( 0.0000,  0.0000,  0.0000)
  15 C      2.659334    2.659334    4.433008    ( 0.0000,  0.0000,  0.0000)
  16 C      0.005597    0.005597    7.096195    ( 0.0000,  0.0000,  0.0000)
  17 C      0.000909    1.776657    8.866874    ( 0.0000,  0.0000,  0.0000)
  18 C      1.773012    1.773012    7.093113    ( 0.0000,  0.0000,  0.0000)
  19 C      1.776657    0.000909    8.866874    ( 0.0000,  0.0000,  0.0000)
  20 C      2.662759    0.886233    9.752379    ( 0.0000,  0.0000,  0.0000)
  21 C      0.889792    0.889792    7.980502    ( 0.0000,  0.0000,  0.0000)
  22 C      0.886233    2.662759    9.752379    ( 0.0000,  0.0000,  0.0000)
  23 C      2.657417    2.657417    7.978135    ( 0.0000,  0.0000,  0.0000)
  24 C     -0.001720    3.550221   -0.001720    ( 0.0000,  0.0000,  0.0000)
  25 C     -0.001514    5.320396    1.772014    ( 0.0000,  0.0000,  0.0000)
  26 C      1.772014    5.320396   -0.001514    ( 0.0000,  0.0000,  0.0000)
  27 C      1.772639    3.546938    1.772639    ( 0.0000,  0.0000,  0.0000)
[...]
  340      6.38464    1.00000      6.39522    1.00000
  341      6.38613    1.00000      6.40136    1.00000
  342      6.40639    1.00000      6.41215    1.00000
  343      6.41357    1.00000      6.42317    1.00000
  344      6.41741    1.00000      6.43337    1.00000
  345      6.41973    1.00000      6.43401    1.00000
  346      6.44812    1.00000      6.46025    1.00000
  347      6.45477    1.00000      6.46869    1.00000
  348      6.45575    1.00000      6.49082    1.00000
  349      6.46451    1.00000      6.50016    1.00000
  350      6.50473    1.00000      6.50885    1.00000
  351      6.50729    1.00000      6.53564    1.00000
  352      6.51347    1.00000      6.55020    1.00000
  353      6.61386    1.00000      6.66329    1.00000
  354      6.65686    1.00000      6.69276    1.00000
  355      6.90216    1.00000      6.93367    1.00000
  356      6.90906    1.00000      6.93917    1.00000
  357      6.91983    1.00000      6.94478    1.00000
  358      7.09661    1.00000      7.10651    1.00000
  359      7.10015    1.00000      7.10879    1.00000
  360      7.16823    1.00000      7.17177    1.00000
  361      7.16956    1.00000      7.17836    1.00000
  362      7.17416    1.00000      7.17935    1.00000
  363      7.18418    1.00000      7.18661    1.00000
  364      7.19320    1.00000      7.20844    1.00000
  365      7.19648    1.00000      7.21399    1.00000
  366      7.22188    1.00000      7.22628    1.00000
  367      7.22316    1.00000      7.23034    1.00000
  368      7.23252    1.00000      7.23778    1.00000
  369      7.23718    1.00000      7.25378    1.00000
  370      7.23776    1.00000      7.25602    1.00000
  371      7.25740    1.00000      7.27006    1.00000
  372      7.26349    1.00000      7.27448    1.00000
  373      7.26608    1.00000      7.27649    1.00000
  374      7.26710    1.00000      7.29008    1.00000
  375      7.29636    1.00000      7.30214    1.00000
  376      7.32536    1.00000      7.36994    1.00000
  377      7.38332    1.00000      7.41802    1.00000
  378      7.42541    1.00000      7.46361    1.00000
  379      7.95269    1.00000      8.10896    1.00000
  380      8.19342    1.00000      8.33213    1.00000
  381      8.26321    1.00000      8.35064    1.00000
  382      8.54766    1.00000      8.72284    1.00000
  383      8.69581    1.00000      8.72979    1.00000
  384      8.71087    1.00000      8.76971    1.00000
  385      8.77348    1.00000      8.78367    1.00000
  386      8.77662    1.00000      8.79034    1.00000
  387      8.78734    1.00000      8.79274    1.00000
  388      8.79156    1.00000      8.80625    1.00000
  389      8.80213    1.00000      8.82200    1.00000
  390      8.81073    1.00000      8.82413    1.00000
  391      8.82686    1.00000      8.85950    1.00000
  392      8.86659    1.00000      8.87558    1.00000
  393      8.87487    1.00000      8.87973    1.00000
  394      8.89805    1.00000      8.90791    1.00000
  395      8.95893    1.00000      8.96544    1.00000
  396      8.96985    1.00000      8.97606    1.00000
  397      9.01867    1.00000      9.02969    1.00000
  398      9.02314    1.00000      9.03373    1.00000
  399      9.02996    1.00000      9.04201    1.00000
  400      9.03482    1.00000      9.04228    1.00000
  401      9.03907    1.00000      9.04892    1.00000
  402      9.04103    1.00000      9.05202    1.00000
  403      9.04400    1.00000      9.05998    1.00000
  404      9.05593    1.00000      9.06259    1.00000
  405      9.06475    1.00000      9.08794    1.00000
  406      9.08485    1.00000      9.09816    1.00000
  407      9.09614    1.00000      9.10408    1.00000
  408      9.10733    1.00000      9.12625    1.00000
  409      9.11861    1.00000      9.13753    1.00000
  410      9.13079    1.00000      9.14137    1.00000
  411      9.15070    1.00000      9.17403    1.00000
  412      9.16964    1.00000      9.18081    1.00000
  413      9.60481    1.00000      9.77102    1.00000
  414      9.77946    1.00000      9.82645    1.00000
  415      9.79806    1.00000      9.83861    1.00000
  416      9.89560    1.00000     10.03633    1.00000
  417     10.02313    1.00000     10.04132    1.00000
  418     10.03253    1.00000     10.05639    1.00000
  419     10.05189    1.00000     10.07509    1.00000
  420     10.06975    1.00000     10.09483    1.00000
  421     10.08599    1.00000     10.09483    1.00000
  422     10.08700    1.00000     10.11571    1.00000
  423     10.10371    1.00000     10.16319    1.00000
  424     10.13875    1.00000     10.21800    1.00000
  425     10.19432    1.00000     10.36871    1.00000
  426     11.22466    1.00000     11.47502    1.00000
  427     11.42855    1.00000     11.48881    1.00000
  428     11.44034    1.00000     11.53036    1.00000
  429     11.99891    1.00000     14.03725    0.00000
  430     13.33467    1.00000     15.22923    1.00000
  431     13.95413    1.00000     16.06285    0.00000
  432     17.04801    0.00000     17.05169    0.00000
  433     17.04826    0.00000     17.05361    0.00000
  434     17.05887    0.00000     17.07630    0.00000
  435     17.10755    0.00000     17.12358    0.00000
  436     17.11465    0.00000     17.12793    0.00000
  437     17.12258    0.00000     17.13907    0.00000
  438     17.60357    0.00000     17.61518    0.00000
  439     17.70438    0.00000     17.70987    0.00000
  440     17.70461    0.00000     17.71602    0.00000
  441     17.71090    0.00000     17.71688    0.00000
  442     17.71423    0.00000     17.72054    0.00000
  443     17.79192    0.00000     17.81124    0.00000

Fermi level: inf

Could not find a gap

Forces in eV/Ang:
  0 C    -0.00041   -0.00172   -0.00043
  1 C    -0.00058   -0.00135    0.00040
  2 C     0.00045   -0.00134   -0.00060
  3 C    -0.00115   -0.00083   -0.00119
  4 C    -0.00032   -0.00006   -0.00034
  5 C    -0.00096   -0.00147   -0.00099
  6 C    -0.00169    0.00152    0.00196
  7 C     0.00199    0.00154   -0.00173
  8 C    -0.00183   -0.00117    0.00067
  9 C     0.00143    0.00176   -0.00209
 10 C    -0.00120    0.00001    0.00117
 11 C     0.00062   -0.00043   -0.00074
 12 C    -0.00090    0.00111    0.00008
 13 C    -0.00072   -0.00103   -0.00095
 14 C     0.00073    0.00028    0.00053
 15 C    -0.00074    0.00001    0.00188
 16 C     0.00114    0.00060   -0.00193
 17 C    -0.00071    0.00162   -0.00198
 18 C     0.00099    0.00133   -0.00112
 19 C     0.00197   -0.00201   -0.00250
 20 C     0.00131   -0.00077   -0.00113
 21 C     0.00164    0.00050   -0.00139
 22 C     0.00117    0.00032   -0.00057
 23 C     0.00113    0.00085   -0.00105
 24 C    -0.00074   -0.00039   -0.00076
 25 C     0.00058   -0.00060    0.00054
 26 C     0.00065   -0.00058    0.00053
 27 C     0.00032    0.00224    0.00027
 28 C     0.00097    0.00346    0.00092
 29 C    -0.00079    0.00013   -0.00086
 30 C     0.00246    0.00082   -0.00118
 31 C    -0.00108    0.00082    0.00235
 32 C    -0.00296    0.00245    0.00234
 33 C     0.00159   -0.00009    0.00111
 34 C     0.00069    0.00190    0.00200
 35 C    -0.00017    0.00154    0.00157
 36 C    -0.00018    0.00203    0.00105
 37 C     0.00022    0.00120    0.00144
 38 C    -0.00142    0.00161    0.00262
 39 C    -0.00044    0.00074    0.00238
 40 C     0.00075   -0.00219    0.00103
 41 C    -0.00082   -0.00017    0.00253
 42 C    -0.00167    0.00028    0.00046
 43 C     0.00186    0.00044    0.00006
 44 C     0.00062    0.00095   -0.00117
 45 C    -0.00040   -0.00075    0.00202
 46 C     0.00118   -0.00182    0.00039
 47 C     0.00014   -0.00139   -0.00325
 48 C     0.00050   -0.00213    0.00046
 49 C    -0.00108   -0.00260    0.00071
 50 C     0.00079   -0.00264   -0.00113
 51 C     0.00108    0.00027    0.00098
 52 C     0.00074   -0.00065    0.00068
 53 C     0.00064   -0.00139    0.00057
 54 C    -0.00041   -0.00119    0.00105
 55 C     0.00110   -0.00122   -0.00047
 56 C     0.00176    0.00052   -0.00387
 57 C     0.00069    0.00326   -0.00076
 58 C     0.00195   -0.00028    0.00098
 59 C    -0.00160    0.00106    0.00084
 60 C     0.00023   -0.00262   -0.00111
 61 C     0.00029    0.00208   -0.00143
 62 C     0.00159    0.00084   -0.00170
 63 C     0.00126   -0.00224    0.00172
 64 C    -0.00014    0.00227    0.00311
 65 C    -0.00033   -0.00043   -0.00048
 66 C    -0.00000   -0.00233   -0.00252
 67 C    -0.00012   -0.00196   -0.00288
 68 C    -0.00211   -0.00255   -0.00227
 69 C     0.00023    0.00002    0.00017
 70 C     0.00123   -0.00162   -0.00111
 71 C    -0.00189   -0.00275   -0.00255
 72 C     0.00071   -0.00122   -0.00188
 73 C     0.00118    0.00001   -0.00124
 74 C    -0.00210    0.00180    0.00137
 75 C    -0.00076   -0.00044    0.00055
 76 C     0.00004    0.00111   -0.00095
 77 C    -0.00095   -0.00103   -0.00078
 78 C     0.00185    0.00001   -0.00079
 79 C     0.00049    0.00033    0.00062
 80 C     0.00099   -0.00290    0.00099
 81 C     0.00161    0.00047    0.00140
 82 C     0.00135    0.00047    0.00161
 83 C     0.00147   -0.00003    0.00155
 84 C     0.00140   -0.00083    0.00146
 85 C     0.00143   -0.00129    0.00146
 86 C     0.00195    0.00123    0.00136
 87 C     0.00126    0.00119    0.00197
 88 C    -0.00371    0.00122    0.00234
 89 C     0.00012    0.00217    0.00122
 90 C    -0.00110   -0.00120    0.00094
 91 C    -0.00073   -0.00007    0.00224
 92 C    -0.00299    0.00191    0.00265
 93 C    -0.00270    0.00057    0.00338
 94 C     0.00100    0.00115   -0.00093
 95 C    -0.00126   -0.00080   -0.00215
 96 C     0.00240    0.00251   -0.00304
 97 C     0.00204    0.00191    0.00057
 98 C     0.00110   -0.00002    0.00138
 99 C     0.00153    0.00157   -0.00029
100 C     0.00095    0.00202   -0.00032
101 C     0.00145    0.00124    0.00009
102 C     0.00234    0.00074   -0.00054
103 C     0.00254    0.00160   -0.00162
104 C     0.00006    0.00020    0.00006
105 C     0.00141    0.00205    0.00139
106 C     0.00126    0.00204    0.00135
107 C     0.00255    0.00090    0.00268
108 C    -0.00024   -0.00119   -0.00000
109 C     0.00156    0.00047    0.00161
110 C     0.00189    0.00138   -0.00036
111 C    -0.00064    0.00135    0.00181
112 C    -0.00088   -0.00032    0.00049
113 C    -0.00191   -0.00073   -0.00033
114 C    -0.00201   -0.00350    0.00075
115 C     0.00027   -0.00261   -0.00002
116 C    -0.00003   -0.00256    0.00254
117 C    -0.00335   -0.00388    0.00324
118 C    -0.00120   -0.00005    0.00152
119 C     0.00297    0.00080   -0.00244
120 C    -0.00377    0.00047    0.00165
121 C     0.00101   -0.00031    0.00187
122 C    -0.00079    0.00315    0.00058
123 C     0.00078    0.00103   -0.00177
124 C    -0.00118   -0.00261    0.00009
125 C    -0.00142    0.00201    0.00015
126 C     0.00170   -0.00225    0.00122
127 C    -0.00173    0.00081    0.00149
128 C    -0.00119   -0.00125   -0.00120
129 C    -0.00020   -0.00069    0.00096
130 C     0.00086   -0.00067   -0.00024
131 C    -0.00121    0.00298   -0.00101
132 C     0.00379   -0.00182    0.00418
133 C    -0.00260    0.00258   -0.00254
134 C    -0.00040    0.00188    0.00131
135 C     0.00118    0.00197   -0.00042
136 C     0.00114   -0.00078   -0.00174
137 C    -0.00296   -0.00096   -0.00186
138 C    -0.00027    0.00200    0.00006
139 C     0.00218    0.00070   -0.00141
140 C     0.00239    0.00284    0.00100
141 C    -0.00177    0.00268   -0.00087
142 C    -0.00116   -0.00096   -0.00153
143 C     0.00144    0.00032    0.00041
144 C    -0.00198    0.00059    0.00109
145 C    -0.00116    0.00134    0.00090
146 C    -0.00201    0.00162   -0.00073
147 C    -0.00250   -0.00199    0.00190
148 C    -0.00111   -0.00077    0.00126
149 C    -0.00142    0.00051    0.00158
150 C    -0.00108    0.00080    0.00104
151 C    -0.00057    0.00031    0.00112
152 C     0.00230    0.00126   -0.00375
153 C     0.00086   -0.00122   -0.00105
154 C     0.00123    0.00213    0.00007
155 C     0.00224   -0.00002   -0.00070
156 C     0.00268    0.00191   -0.00296
157 C     0.00336    0.00058   -0.00271
158 C    -0.00224   -0.00087   -0.00117
159 C    -0.00088    0.00107    0.00097
160 C     0.00207    0.00059    0.00217
161 C    -0.00286    0.00045   -0.00081
162 C    -0.00085    0.00042   -0.00278
163 C    -0.00059   -0.00032   -0.00054
164 C    -0.00058    0.00017   -0.00057
165 C     0.00065    0.00092    0.00071
166 C    -0.00290    0.00033   -0.00300
167 C    -0.00301    0.00030   -0.00280
168 C     0.00094   -0.00214    0.00067
169 C     0.00036    0.00027   -0.00186
170 C     0.00243   -0.00017   -0.00088
171 C     0.00004    0.00040    0.00175
172 C    -0.00114    0.00091    0.00050
173 C     0.00192   -0.00075   -0.00054
174 C    -0.00333   -0.00138   -0.00008
175 C     0.00037   -0.00183    0.00107
176 C     0.00039   -0.00039   -0.00096
177 C     0.00030   -0.00368   -0.00197
178 C    -0.00032   -0.00081   -0.00213
179 C    -0.00002   -0.00279    0.00029
180 C     0.00265   -0.00271    0.00008
181 C     0.00318   -0.00407   -0.00347
182 C    -0.00249    0.00064    0.00320
183 C     0.00171   -0.00007   -0.00136
184 C    -0.00087   -0.00008   -0.00065
185 C     0.00109   -0.00215    0.00163
186 C     0.00158   -0.00225    0.00144
187 C    -0.00330   -0.00156   -0.00319
188 C    -0.00198   -0.00190   -0.00193
189 C     0.00111   -0.00295    0.00135
190 C     0.00170    0.00202   -0.00054
191 C    -0.00051    0.00203    0.00196
192 C     0.00295    0.00221   -0.00030
193 C    -0.00258   -0.00232   -0.00014
194 C    -0.00053   -0.00043   -0.00037
195 C    -0.00291   -0.00194   -0.00028
196 C    -0.00223   -0.00247   -0.00224
197 C     0.00011    0.00001    0.00011
198 C    -0.00257   -0.00270   -0.00199
199 C    -0.00110   -0.00160    0.00118
200 C    -0.00191   -0.00073    0.00094
201 C    -0.00000    0.00221   -0.00027
202 C    -0.00186   -0.00085   -0.00306
203 C    -0.00126    0.00098    0.00209
204 C     0.00114    0.00301    0.00249
205 C    -0.00094    0.00287   -0.00195
206 C     0.00033    0.00043    0.00153
207 C    -0.00147   -0.00086   -0.00120
208 C     0.00070   -0.00057   -0.00151
209 C    -0.00151   -0.00044    0.00088
210 C    -0.00187    0.00216   -0.00174
211 C    -0.00031   -0.00036   -0.00028
212 N     0.00142    0.00254    0.00162
213 C    -0.00120   -0.00032   -0.00143
214 C    -0.00142   -0.00028   -0.00113

Writing to nv-triplet-excited-relaxed.gpw (mode='all')

Timing:                                      incl.     excl.
-------------------------------------------------------------------
Density initialized from wave functions:     8.130     8.130   0.0% |
 Symmetrize density:                         0.000     0.000   0.0% |
Forces:                                  85923.439 85923.439  24.0% |---------|
Hamiltonian:                                25.123     0.079   0.0% |
 Atomic:                                    13.448     0.089   0.0% |
  XC Correction:                            13.359    13.359   0.0% |
 Calculate atomic Hamiltonians:              3.677     3.677   0.0% |
 Communicate:                                2.234     2.234   0.0% |
 Poisson:                                    0.008     0.008   0.0% |
 XC 3D grid:                                 5.676     5.676   0.0% |
PWDescriptor:                                0.245     0.245   0.0% |
Redistribute:                                0.021     0.021   0.0% |
SCF-cycle:                               271435.693    50.134   0.0% |
 Apply H:                                 9025.338  9025.289   2.5% ||
  HMM T:                                     0.049     0.049   0.0% |
 Density:                                    8.084     0.000   0.0% |
  Atomic density matrices:                   0.229     0.229   0.0% |
  Mix:                                       5.800     5.800   0.0% |
  Multipole moments:                         0.004     0.004   0.0% |
  Pseudo density:                            2.052     2.051   0.0% |
   Symmetrize density:                       0.000     0.000   0.0% |
 Direct Minimisation step:               262312.176   101.318   0.0% |
  Get Search Direction:                     67.098    67.098   0.0% |
  Gradient unoccupied orbitals:          24962.011    64.641   0.0% |
   Apply H:                              24878.022 24877.907   7.0% |--|
    HMM T:                                   0.115     0.115   0.0% |
   Orthonormalize:                          19.349     0.015   0.0% |
    calc_s_matrix:                           1.412     1.412   0.0% |
    inverse-cholesky:                        1.653     1.653   0.0% |
    projections:                            14.114    14.114   0.0% |
    rotate_psi_s:                            2.155     2.155   0.0% |
  Inner loop:                            237114.115   379.435   0.1% |
   Energy and gradients:                 235598.018     0.872   0.0% |
    Unitary gradients:                     176.546   176.546   0.0% |
    e/g grid calculations:               235420.601   202.916   0.1% |
     Apply H:                            235217.684 235216.357  65.8% |-------------------------|
      HMM T:                                 1.327     1.327   0.0% |
   Unitary matrix:                         130.983   130.983   0.0% |
   Update Kohn-Sham energy:               1005.678   153.674   0.0% |
    Density:                               205.889     0.008   0.0% |
     Atomic density matrices:                5.777     5.777   0.0% |
     Mix:                                  147.608   147.608   0.0% |
     Multipole moments:                      0.095     0.095   0.0% |
     Pseudo density:                        52.400    52.395   0.0% |
      Symmetrize density:                    0.006     0.006   0.0% |
    Hamiltonian:                           646.115     2.001   0.0% |
     Atomic:                               339.730     2.236   0.0% |
      XC Correction:                       337.493   337.493   0.1% |
     Calculate atomic Hamiltonians:         91.876    91.876   0.0% |
     Communicate:                           57.085    57.085   0.0% |
     New Kinetic Energy:                    13.153    13.153   0.0% |
     Poisson:                                0.157     0.157   0.0% |
     XC 3D grid:                           142.114   142.114   0.0% |
  Orthonormalize:                           67.634     0.053   0.0% |
   calc_s_matrix:                            4.895     4.895   0.0% |
   inverse-cholesky:                         5.917     5.917   0.0% |
   projections:                             49.316    49.316   0.0% |
   rotate_psi_s:                             7.452     7.452   0.0% |
 Hamiltonian:                               25.534     0.080   0.0% |
  Atomic:                                   13.434     0.071   0.0% |
   XC Correction:                           13.363    13.363   0.0% |
  Calculate atomic Hamiltonians:             3.620     3.620   0.0% |
  Communicate:                               2.253     2.253   0.0% |
  New Kinetic Energy:                        0.519     0.519   0.0% |
  Poisson:                                   0.006     0.006   0.0% |
  XC 3D grid:                                5.620     5.620   0.0% |
 Orthonormalize:                             8.353     0.000   0.0% |
  Orthonormalize:                            8.353     0.007   0.0% |
   calc_s_matrix:                            0.614     0.614   0.0% |
   inverse-cholesky:                         0.716     0.716   0.0% |
   projections:                              6.082     6.082   0.0% |
   rotate_psi_s:                             0.935     0.935   0.0% |
 projections:                                6.074     6.074   0.0% |
Set symmetry:                                0.000     0.000   0.0% |
Other:                                      23.241    23.241   0.0% |
-------------------------------------------------------------------
Total:                                             357415.893 100.0%

Memory usage: 5.41 GiB
Date: Tue Oct  1 18:36:15 2024
