
  ___ ___ ___ _ _ _  
 |   |   |_  | | | | 
 | | | | | . | | | | 
 |__ |  _|___|_____|  24.6.0
 |___|_|             

User:   ac2uoma125@g05r3n18
Date:   Sat Dec  7 22:19:29 2024
Arch:   x86_64
Pid:    64563
CWD:    /work/home/ac2uoma125/gpaw/hse06_nvcenter_215/half-occupation
Python: 3.12.5
gpaw:   /work/home/ac2uoma125/anaconda3/envs/gpaw2460/lib/python3.12/site-packages/gpaw
_gpaw:  /work/home/ac2uoma125/anaconda3/envs/gpaw2460/lib/python3.12/site-packages/
        _gpaw.cpython-312-x86_64-linux-gnu.so
ase:    /work/home/ac2uoma125/anaconda3/envs/gpaw2460/lib/python3.12/site-packages/ase (version 3.23.0)
numpy:  /work/home/ac2uoma125/anaconda3/envs/gpaw2460/lib/python3.12/site-packages/numpy (version 1.26.4)
scipy:  /work/home/ac2uoma125/anaconda3/envs/gpaw2460/lib/python3.12/site-packages/scipy (version 1.14.1)
libxc:  6.2.2
units:  Angstrom and eV
cores: 32
OpenMP: True
OMP_NUM_THREADS: 1

Input parameters:
  eigensolver: {blocksize: 1,
                converge_unocc: False,
                excited_state: True,
                functional: {'name': 'ks'},
                grad_tol_inner_loop: 0.0001,
                grad_tol_pz_localization: 0.0005,
                linesearch_algo: {'name': 'max-step', 'max_step': 0.2},
                localization_tol: None,
                localizationseed: None,
                localizationtype: None,
                max_step_inner_loop: 0.2,
                maxiter_inner_loop: 6,
                maxiter_pz_localization: 50,
                maxiter_unocc: 333,
                momevery: 10,
                name: etdm-fdpw,
                need_init_orbs: False,
                need_localization: False,
                printinnerloop: False,
                restart_canonical: True,
                restartevery_iloop_notconverged: 3,
                searchdir_algo: {'name': 'l-bfgs', 'memory': 3},
                use_prec: True}

Input parameters:
  occupations: {name: mom,
                numbers: [[1. 1. 1. ... 0. 0. 0.]
 [1. 1. 1. ... 0. 0. 0.]],
                update_numbers: True,
                use_fixed_occupations: False,
                use_projections: True}

Excited-state calculation with Maximum Overlap Method
  Gaussian smearing of holes and excited electrons: off

Initialize ...

species:
  C:
    name: Carbon
    id: 4aa54d4b901d75f77cc0ea3eec22967b
    Z: 6.0
    valence: 4
    core: 2
    charge: 0.0
    file: /work/home/ac2uoma125/anaconda3/envs/gpaw2460/share/gpaw/C.PBE.gz
    compensation charges: {type: gauss,
                           rc: 0.20,
                           lmax: 2}
    cutoffs: {filter: 1.14,
              core: 1.14}
    projectors:
      #              energy  rcut
      - 2s(2.00)   -13.751   0.635
      - 2p(2.00)    -5.284   0.635
      -  s          13.461   0.635
      -  p          21.927   0.635
      -  d           0.000   0.635
  
    # Using partial waves for C as LCAO basis

  N:
    name: Nitrogen
    id: f7500608b86eaa90eef8b1d9a670dc53
    Z: 7.0
    valence: 5
    core: 2
    charge: 0.0
    file: /work/home/ac2uoma125/anaconda3/envs/gpaw2460/share/gpaw/N.PBE.gz
    compensation charges: {type: gauss,
                           rc: 0.18,
                           lmax: 2}
    cutoffs: {filter: 1.11,
              core: 0.96}
    projectors:
      #              energy  rcut
      - 2s(2.00)   -18.583   0.603
      - 2p(3.00)    -7.089   0.529
      -  s           8.629   0.603
      -  p          20.123   0.529
      -  d           0.000   0.577
  
    # Using partial waves for N as LCAO basis

Reference energy: -221394.138216  # eV

Spin-polarized calculation.
Magnetic moment: 2.000000

Convergence criteria:
 Maximum [total energy] change in last 3 cyles: 0.0005 eV / valence electron
 Maximum integral of absolute [dens]ity change: 0.0001 electrons / valence electron
 Maximum integral of absolute [eigenst]ate change: 4e-08 eV^2 / valence electron
 Maximum number of scf [iter]ations: 333
 (Square brackets indicate name in SCF output, whereas a 'c' in
 the SCF output indicates the quantity has converged.)

Eigensolver
   Direct minimisation using exponential transformation.
       Search direction: L-BFGS algorithm
       Line search: step size equals one
       Preconditioning: True
       Orbital-density self-interaction corrections: ks
       WARNING: do not use it for metals as occupation numbers are
                not found variationally
 

Density mixing:
  Method: difference
  Backend: no-mixing
  Linear mixing parameter: 0
  old densities: 0
  Damping of long wavelength oscillations: 0 

XC parameters: HYB_GGA_XC_HSE06 + 0.25 * EXX(omega = 0.11 bohr^-1)
  Short-range Coulomb: erfc(omega*r)/r (omega = 0.11 bohr^-1)

Memory estimate:
  Process memory now: 5032.96 MiB
Attribute error: AttributeError("'HybridXC' object has no attribute 'estimate_memory'")
Some object probably lacks estimate_memory() method
Memory breakdown may be incomplete
  Calculator: 5.42 MiB
    Density: 3.82 MiB
      Arrays: 2.16 MiB
      Localized functions: 1.67 MiB
      Mixer: 0.00 MiB
    Hamiltonian: 1.60 MiB
      Arrays: 1.60 MiB

Total number of cores used: 32
Domain decomposition: 4 x 4 x 2

Number of atoms: 215
Number of atomic orbitals: 860
Number of bands in calculation: 444
Number of valence electrons: 862
Bands to converge: occupied

... initialized

Initializing position-dependent things.

Density initialized from wave functions
        .--------C----------------.  
       /|           C             |  
      / | C       C  C C   C      |  
     / C|    C  C    C  C     C   |  
    /  C|C    C C C    C CCC   C  |  
   /    C C C    C C      N CC    |  
  /  C C| CCCCCC  C C C    C CC   |  
 *    C C   CCCCC    C C C    C C |  
 |C    CCC C  CCCCC C  CCCCC   C C|  
 | C C  CCC C    CCC C C  CCC     C  
 |  C C | CCCC C  CCCCC C  CC C   |  
 C   CC C C C C C    CCC C   CC   |  
 |    CCCC C C CCCCC C CCCC C  C  |  
 |     C.CC-C-C-C-CC-C-C-C-C-C----.  
 |  C C/C CCCC   C C CC C C CCC  /   
 |   CC     C CC    C C      C  /    
 |   /C C      CCCC    C C     /     
 |  /    C C      C C      CC /      
 | /C       C        C C     /       
 |/                     C   /        
 C----------------C--------*         

Positions:
   0 C      0.002372    0.002372    0.002372    ( 0.0000,  0.0000,  0.0000)
   1 C     -0.000177    1.774292    1.774292    ( 0.0000,  0.0000,  0.0000)
   2 C      1.774292    1.774292   -0.000177    ( 0.0000,  0.0000,  0.0000)
   3 C      1.774292   -0.000177    1.774292    ( 0.0000,  0.0000,  0.0000)
   4 C      2.660291    0.886016    2.660291    ( 0.0000,  0.0000,  0.0000)
   5 C      0.887932    0.887932    0.887932    ( 0.0000,  0.0000,  0.0000)
   6 C      0.886016    2.660291    2.660291    ( 0.0000,  0.0000,  0.0000)
   7 C      2.660291    2.660291    0.886016    ( 0.0000,  0.0000,  0.0000)
   8 C     -0.001720   -0.001720    3.550221    ( 0.0000,  0.0000,  0.0000)
   9 C     -0.001514    1.772014    5.320396    ( 0.0000,  0.0000,  0.0000)
  10 C      1.772639    1.772639    3.546938    ( 0.0000,  0.0000,  0.0000)
  11 C      1.772014   -0.001514    5.320396    ( 0.0000,  0.0000,  0.0000)
  12 C      2.658540    0.886445    6.206956    ( 0.0000,  0.0000,  0.0000)
  13 C      0.885452    0.885452    4.434520    ( 0.0000,  0.0000,  0.0000)
  14 C      0.886445    2.658540    6.206956    ( 0.0000,  0.0000,  0.0000)
  15 C      2.659334    2.659334    4.433008    ( 0.0000,  0.0000,  0.0000)
  16 C      0.005597    0.005597    7.096195    ( 0.0000,  0.0000,  0.0000)
  17 C      0.000909    1.776657    8.866874    ( 0.0000,  0.0000,  0.0000)
  18 C      1.773012    1.773012    7.093113    ( 0.0000,  0.0000,  0.0000)
  19 C      1.776657    0.000909    8.866874    ( 0.0000,  0.0000,  0.0000)
  20 C      2.662759    0.886233    9.752379    ( 0.0000,  0.0000,  0.0000)
  21 C      0.889792    0.889792    7.980502    ( 0.0000,  0.0000,  0.0000)
  22 C      0.886233    2.662759    9.752379    ( 0.0000,  0.0000,  0.0000)
  23 C      2.657417    2.657417    7.978135    ( 0.0000,  0.0000,  0.0000)
  24 C     -0.001720    3.550221   -0.001720    ( 0.0000,  0.0000,  0.0000)
  25 C     -0.001514    5.320396    1.772014    ( 0.0000,  0.0000,  0.0000)
  26 C      1.772014    5.320396   -0.001514    ( 0.0000,  0.0000,  0.0000)
  27 C      1.772639    3.546938    1.772639    ( 0.0000,  0.0000,  0.0000)
  28 C      2.659334    4.433008    2.659334    ( 0.0000,  0.0000,  0.0000)
  29 C      0.885452    4.434520    0.885452    ( 0.0000,  0.0000,  0.0000)
  30 C      0.886445    6.206956    2.658540    ( 0.0000,  0.0000,  0.0000)
  31 C      2.658540    6.206956    0.886445    ( 0.0000,  0.0000,  0.0000)
  32 C     -0.001669    3.546694    3.546694    ( 0.0000,  0.0000,  0.0000)
  33 C     -0.002583    5.319921    5.319921    ( 0.0000,  0.0000,  0.0000)
  34 C      1.771768    5.319199    3.545991    ( 0.0000,  0.0000,  0.0000)
  35 C      1.771768    3.545991    5.319199    ( 0.0000,  0.0000,  0.0000)
  36 C      2.657674    4.432033    6.205470    ( 0.0000,  0.0000,  0.0000)
  37 C      0.884954    4.433087    4.433087    ( 0.0000,  0.0000,  0.0000)
  38 C      0.883451    6.206763    6.206763    ( 0.0000,  0.0000,  0.0000)
  39 C      2.657674    6.205470    4.432033    ( 0.0000,  0.0000,  0.0000)
  40 C      0.000014    3.545859    7.091609    ( 0.0000,  0.0000,  0.0000)
  41 C     -0.010700    5.330071    8.863338    ( 0.0000,  0.0000,  0.0000)
  42 C      1.771117    5.320902    7.092299    ( 0.0000,  0.0000,  0.0000)
  43 C      1.770943    3.548938    8.865634    ( 0.0000,  0.0000,  0.0000)
  44 C      2.658959    4.434080    9.751333    ( 0.0000,  0.0000,  0.0000)
  45 C      0.881582    4.437692    7.977967    ( 0.0000,  0.0000,  0.0000)
  46 C      0.885071    6.209040    9.751980    ( 0.0000,  0.0000,  0.0000)
  47 C      2.660173    6.206484    7.978018    ( 0.0000,  0.0000,  0.0000)
  48 C      0.005597    7.096195    0.005597    ( 0.0000,  0.0000,  0.0000)
  49 C      0.000909    8.866874    1.776657    ( 0.0000,  0.0000,  0.0000)
  50 C      1.776657    8.866874    0.000909    ( 0.0000,  0.0000,  0.0000)
  51 C      1.773012    7.093113    1.773012    ( 0.0000,  0.0000,  0.0000)
  52 C      2.657417    7.978135    2.657417    ( 0.0000,  0.0000,  0.0000)
  53 C      0.889792    7.980502    0.889792    ( 0.0000,  0.0000,  0.0000)
  54 C      0.886233    9.752379    2.662759    ( 0.0000,  0.0000,  0.0000)
  55 C      2.662759    9.752379    0.886233    ( 0.0000,  0.0000,  0.0000)
  56 C      0.000014    7.091609    3.545859    ( 0.0000,  0.0000,  0.0000)
  57 C     -0.010700    8.863338    5.330071    ( 0.0000,  0.0000,  0.0000)
  58 C      1.770943    8.865634    3.548938    ( 0.0000,  0.0000,  0.0000)
  59 C      1.771117    7.092299    5.320902    ( 0.0000,  0.0000,  0.0000)
  60 C      2.660173    7.978018    6.206484    ( 0.0000,  0.0000,  0.0000)
  61 C      0.881582    7.977967    4.437692    ( 0.0000,  0.0000,  0.0000)
  62 C      0.885071    9.751980    6.209040    ( 0.0000,  0.0000,  0.0000)
  63 C      2.658959    9.751333    4.434080    ( 0.0000,  0.0000,  0.0000)
  64 C     -0.005349    7.094062    7.094062    ( 0.0000,  0.0000,  0.0000)
  65 C      0.007882    8.871270    8.871270    ( 0.0000,  0.0000,  0.0000)
  66 C      1.773973    8.865184    7.093341    ( 0.0000,  0.0000,  0.0000)
  67 C      1.773973    7.093341    8.865184    ( 0.0000,  0.0000,  0.0000)
  68 C      2.662178    7.979334    9.751729    ( 0.0000,  0.0000,  0.0000)
  69 C      0.887169    7.980595    7.980595    ( 0.0000,  0.0000,  0.0000)
  70 C      0.891775    9.755494    9.755494    ( 0.0000,  0.0000,  0.0000)
  71 C      2.662178    9.751729    7.979334    ( 0.0000,  0.0000,  0.0000)
  72 C      3.550221   -0.001720   -0.001720    ( 0.0000,  0.0000,  0.0000)
  73 C      3.546938    1.772639    1.772639    ( 0.0000,  0.0000,  0.0000)
  74 C      5.320396    1.772014   -0.001514    ( 0.0000,  0.0000,  0.0000)
  75 C      5.320396   -0.001514    1.772014    ( 0.0000,  0.0000,  0.0000)
  76 C      6.206956    0.886445    2.658540    ( 0.0000,  0.0000,  0.0000)
  77 C      4.434520    0.885452    0.885452    ( 0.0000,  0.0000,  0.0000)
  78 C      4.433008    2.659334    2.659334    ( 0.0000,  0.0000,  0.0000)
  79 C      6.206956    2.658540    0.886445    ( 0.0000,  0.0000,  0.0000)
  80 C      3.546694   -0.001669    3.546694    ( 0.0000,  0.0000,  0.0000)
  81 C      3.545991    1.771768    5.319199    ( 0.0000,  0.0000,  0.0000)
  82 C      5.319199    1.771768    3.545991    ( 0.0000,  0.0000,  0.0000)
  83 C      5.319921   -0.002583    5.319921    ( 0.0000,  0.0000,  0.0000)
  84 C      6.206763    0.883451    6.206763    ( 0.0000,  0.0000,  0.0000)
  85 C      4.433087    0.884954    4.433087    ( 0.0000,  0.0000,  0.0000)
  86 C      4.432033    2.657674    6.205470    ( 0.0000,  0.0000,  0.0000)
  87 C      6.205470    2.657674    4.432033    ( 0.0000,  0.0000,  0.0000)
  88 C      3.545859    0.000014    7.091609    ( 0.0000,  0.0000,  0.0000)
  89 C      3.548938    1.770943    8.865634    ( 0.0000,  0.0000,  0.0000)
  90 C      5.320902    1.771117    7.092299    ( 0.0000,  0.0000,  0.0000)
  91 C      5.330071   -0.010700    8.863338    ( 0.0000,  0.0000,  0.0000)
  92 C      6.209040    0.885071    9.751980    ( 0.0000,  0.0000,  0.0000)
  93 C      4.437692    0.881582    7.977967    ( 0.0000,  0.0000,  0.0000)
  94 C      4.434080    2.658959    9.751333    ( 0.0000,  0.0000,  0.0000)
  95 C      6.206484    2.660173    7.978018    ( 0.0000,  0.0000,  0.0000)
  96 C      3.546694    3.546694   -0.001669    ( 0.0000,  0.0000,  0.0000)
  97 C      3.545991    5.319199    1.771768    ( 0.0000,  0.0000,  0.0000)
  98 C      5.319921    5.319921   -0.002583    ( 0.0000,  0.0000,  0.0000)
  99 C      5.319199    3.545991    1.771768    ( 0.0000,  0.0000,  0.0000)
 100 C      6.205470    4.432033    2.657674    ( 0.0000,  0.0000,  0.0000)
 101 C      4.433087    4.433087    0.884954    ( 0.0000,  0.0000,  0.0000)
 102 C      4.432033    6.205470    2.657674    ( 0.0000,  0.0000,  0.0000)
 103 C      6.206763    6.206763    0.883451    ( 0.0000,  0.0000,  0.0000)
 104 C      3.546165    3.546165    3.546165    ( 0.0000,  0.0000,  0.0000)
 105 C      3.546493    5.320207    5.320207    ( 0.0000,  0.0000,  0.0000)
 106 C      5.320207    5.320207    3.546493    ( 0.0000,  0.0000,  0.0000)
 107 C      5.320207    3.546493    5.320207    ( 0.0000,  0.0000,  0.0000)
 108 C      6.204957    4.435216    6.204957    ( 0.0000,  0.0000,  0.0000)
 109 C      4.432681    4.432681    4.432681    ( 0.0000,  0.0000,  0.0000)
 110 C      4.435216    6.204957    6.204957    ( 0.0000,  0.0000,  0.0000)
 111 C      6.204957    6.204957    4.435216    ( 0.0000,  0.0000,  0.0000)
 112 C      3.540875    3.540875    7.092749    ( 0.0000,  0.0000,  0.0000)
 113 C      3.546107    5.318967    8.863917    ( 0.0000,  0.0000,  0.0000)
 114 C      5.319652    5.319652    7.095926    ( 0.0000,  0.0000,  0.0000)
 115 C      5.318967    3.546107    8.863917    ( 0.0000,  0.0000,  0.0000)
 116 C      6.209079    4.430145    9.754367    ( 0.0000,  0.0000,  0.0000)
 117 C      4.423602    4.423602    7.973369    ( 0.0000,  0.0000,  0.0000)
 118 C      4.430145    6.209079    9.754367    ( 0.0000,  0.0000,  0.0000)
 119 C      6.145582    6.145582    8.012744    ( 0.0000,  0.0000,  0.0000)
 120 C      3.545859    7.091609    0.000014    ( 0.0000,  0.0000,  0.0000)
 121 C      3.548938    8.865634    1.770943    ( 0.0000,  0.0000,  0.0000)
 122 C      5.330071    8.863338   -0.010700    ( 0.0000,  0.0000,  0.0000)
 123 C      5.320902    7.092299    1.771117    ( 0.0000,  0.0000,  0.0000)
 124 C      6.206484    7.978018    2.660173    ( 0.0000,  0.0000,  0.0000)
 125 C      4.437692    7.977967    0.881582    ( 0.0000,  0.0000,  0.0000)
 126 C      4.434080    9.751333    2.658959    ( 0.0000,  0.0000,  0.0000)
 127 C      6.209040    9.751980    0.885071    ( 0.0000,  0.0000,  0.0000)
 128 C      3.540875    7.092749    3.540875    ( 0.0000,  0.0000,  0.0000)
 129 C      3.546107    8.863917    5.318967    ( 0.0000,  0.0000,  0.0000)
 130 C      5.318967    8.863917    3.546107    ( 0.0000,  0.0000,  0.0000)
 131 C      5.319652    7.095926    5.319652    ( 0.0000,  0.0000,  0.0000)
 132 C      6.145582    8.012744    6.145582    ( 0.0000,  0.0000,  0.0000)
 133 C      4.423602    7.973369    4.423602    ( 0.0000,  0.0000,  0.0000)
 134 C      4.430145    9.754367    6.209079    ( 0.0000,  0.0000,  0.0000)
 135 C      6.209079    9.754367    4.430145    ( 0.0000,  0.0000,  0.0000)
 136 C      3.550030    7.090855    7.090855    ( 0.0000,  0.0000,  0.0000)
 137 C      3.552115    8.861877    8.861877    ( 0.0000,  0.0000,  0.0000)
 138 C      5.332666    8.847031    7.083222    ( 0.0000,  0.0000,  0.0000)
 139 C      5.332666    7.083222    8.847031    ( 0.0000,  0.0000,  0.0000)
 140 C      6.223423    7.971641    9.734620    ( 0.0000,  0.0000,  0.0000)
 141 C      4.440870    7.974370    7.974370    ( 0.0000,  0.0000,  0.0000)
 142 C      4.438713    9.748724    9.748724    ( 0.0000,  0.0000,  0.0000)
 143 C      6.223423    9.734620    7.971641    ( 0.0000,  0.0000,  0.0000)
 144 C      7.096195    0.005597    0.005597    ( 0.0000,  0.0000,  0.0000)
 145 C      7.093113    1.773012    1.773012    ( 0.0000,  0.0000,  0.0000)
 146 C      8.866874    1.776657    0.000909    ( 0.0000,  0.0000,  0.0000)
 147 C      8.866874    0.000909    1.776657    ( 0.0000,  0.0000,  0.0000)
 148 C      9.752379    0.886233    2.662759    ( 0.0000,  0.0000,  0.0000)
 149 C      7.980502    0.889792    0.889792    ( 0.0000,  0.0000,  0.0000)
 150 C      7.978135    2.657417    2.657417    ( 0.0000,  0.0000,  0.0000)
 151 C      9.752379    2.662759    0.886233    ( 0.0000,  0.0000,  0.0000)
 152 C      7.091609    0.000014    3.545859    ( 0.0000,  0.0000,  0.0000)
 153 C      7.092299    1.771117    5.320902    ( 0.0000,  0.0000,  0.0000)
 154 C      8.865634    1.770943    3.548938    ( 0.0000,  0.0000,  0.0000)
 155 C      8.863338   -0.010700    5.330071    ( 0.0000,  0.0000,  0.0000)
 156 C      9.751980    0.885071    6.209040    ( 0.0000,  0.0000,  0.0000)
 157 C      7.977967    0.881582    4.437692    ( 0.0000,  0.0000,  0.0000)
 158 C      7.978018    2.660173    6.206484    ( 0.0000,  0.0000,  0.0000)
 159 C      9.751333    2.658959    4.434080    ( 0.0000,  0.0000,  0.0000)
 160 C      7.094062   -0.005349    7.094062    ( 0.0000,  0.0000,  0.0000)
 161 C      7.093341    1.773973    8.865184    ( 0.0000,  0.0000,  0.0000)
 162 C      8.865184    1.773973    7.093341    ( 0.0000,  0.0000,  0.0000)
 163 C      8.871270    0.007882    8.871270    ( 0.0000,  0.0000,  0.0000)
 164 C      9.755494    0.891775    9.755494    ( 0.0000,  0.0000,  0.0000)
 165 C      7.980595    0.887169    7.980595    ( 0.0000,  0.0000,  0.0000)
 166 C      7.979334    2.662178    9.751729    ( 0.0000,  0.0000,  0.0000)
 167 C      9.751729    2.662178    7.979334    ( 0.0000,  0.0000,  0.0000)
 168 C      7.091609    3.545859    0.000014    ( 0.0000,  0.0000,  0.0000)
 169 C      7.092299    5.320902    1.771117    ( 0.0000,  0.0000,  0.0000)
 170 C      8.863338    5.330071   -0.010700    ( 0.0000,  0.0000,  0.0000)
 171 C      8.865634    3.548938    1.770943    ( 0.0000,  0.0000,  0.0000)
 172 C      9.751333    4.434080    2.658959    ( 0.0000,  0.0000,  0.0000)
 173 C      7.977967    4.437692    0.881582    ( 0.0000,  0.0000,  0.0000)
 174 C      7.978018    6.206484    2.660173    ( 0.0000,  0.0000,  0.0000)
 175 C      9.751980    6.209040    0.885071    ( 0.0000,  0.0000,  0.0000)
 176 C      7.092749    3.540875    3.540875    ( 0.0000,  0.0000,  0.0000)
 177 C      7.095926    5.319652    5.319652    ( 0.0000,  0.0000,  0.0000)
 178 C      8.863917    5.318967    3.546107    ( 0.0000,  0.0000,  0.0000)
 179 C      8.863917    3.546107    5.318967    ( 0.0000,  0.0000,  0.0000)
 180 C      9.754367    4.430145    6.209079    ( 0.0000,  0.0000,  0.0000)
 181 C      7.973369    4.423602    4.423602    ( 0.0000,  0.0000,  0.0000)
 182 C      8.012744    6.145582    6.145582    ( 0.0000,  0.0000,  0.0000)
 183 C      9.754367    6.209079    4.430145    ( 0.0000,  0.0000,  0.0000)
 184 C      7.090855    3.550030    7.090855    ( 0.0000,  0.0000,  0.0000)
 185 C      7.083222    5.332666    8.847031    ( 0.0000,  0.0000,  0.0000)
 186 C      8.847031    5.332666    7.083222    ( 0.0000,  0.0000,  0.0000)
 187 C      8.861877    3.552115    8.861877    ( 0.0000,  0.0000,  0.0000)
 188 C      9.748724    4.438713    9.748724    ( 0.0000,  0.0000,  0.0000)
 189 C      7.974370    4.440870    7.974370    ( 0.0000,  0.0000,  0.0000)
 190 C      7.971641    6.223423    9.734620    ( 0.0000,  0.0000,  0.0000)
 191 C      9.734620    6.223423    7.971641    ( 0.0000,  0.0000,  0.0000)
 192 C      7.094062    7.094062   -0.005349    ( 0.0000,  0.0000,  0.0000)
 193 C      7.093341    8.865184    1.773973    ( 0.0000,  0.0000,  0.0000)
 194 C      8.871270    8.871270    0.007882    ( 0.0000,  0.0000,  0.0000)
 195 C      8.865184    7.093341    1.773973    ( 0.0000,  0.0000,  0.0000)
 196 C      9.751729    7.979334    2.662178    ( 0.0000,  0.0000,  0.0000)
 197 C      7.980595    7.980595    0.887169    ( 0.0000,  0.0000,  0.0000)
 198 C      7.979334    9.751729    2.662178    ( 0.0000,  0.0000,  0.0000)
 199 C      9.755494    9.755494    0.891775    ( 0.0000,  0.0000,  0.0000)
 200 C      7.090855    7.090855    3.550030    ( 0.0000,  0.0000,  0.0000)
 201 C      7.083222    8.847031    5.332666    ( 0.0000,  0.0000,  0.0000)
 202 C      8.861877    8.861877    3.552115    ( 0.0000,  0.0000,  0.0000)
 203 C      8.847031    7.083222    5.332666    ( 0.0000,  0.0000,  0.0000)
 204 C      9.734620    7.971641    6.223423    ( 0.0000,  0.0000,  0.0000)
 205 C      7.974370    7.974370    4.440870    ( 0.0000,  0.0000,  0.0000)
 206 C      7.971641    9.734620    6.223423    ( 0.0000,  0.0000,  0.0000)
 207 C      9.748724    9.748724    4.438713    ( 0.0000,  0.0000,  0.0000)
 208 C      7.136597    8.864770    8.864770    ( 0.0000,  0.0000,  0.0000)
 209 C      8.864770    8.864770    7.136597    ( 0.0000,  0.0000,  0.0000)
 210 C      8.864770    7.136597    8.864770    ( 0.0000,  0.0000,  0.0000)
 211 C      9.766565    7.984371    9.766565    ( 0.0000,  0.0000,  0.0000)
 212 N      8.067138    8.067138    8.067138    ( 0.0000,  0.0000,  2.0000)
 213 C      7.984371    9.766565    9.766565    ( 0.0000,  0.0000,  0.0000)
 214 C      9.766565    9.766565    7.984371    ( 0.0000,  0.0000,  0.0000)

Unit cell:
           periodic     x           y           z      points  spacing
  1. axis:    yes   10.639295    0.000000    0.000000    63     0.1689
  2. axis:    yes    0.000000   10.639295    0.000000    63     0.1689
  3. axis:    yes    0.000000    0.000000   10.639295    63     0.1689

  Lengths:  10.639295  10.639295  10.639295
  Angles:   90.000000  90.000000  90.000000

Effective grid spacing dv^(1/3) = 0.1689

     iter     time        total  log10-change:  magmom         iter
                         energy   eigst   dens             inner loop
iter:   1 00:14:34 -2155.117299   -2.79  -7.20c   +2.0000           6
iter:   2 01:06:31 -2155.141875   -3.29  -6.54c   +2.0000           5
iter:   3 01:58:30 -2155.151322c  -3.85  -6.98c   +2.0000           5
iter:   4 02:50:34 -2155.153828c  -3.89  -7.26c   +2.0000           5
iter:   5 03:42:32 -2155.154871c  -4.21  -6.68c   +2.0000           5
iter:   6 04:34:30 -2155.155776c  -4.62  -6.48c   +2.0000           5
iter:   7 05:05:41 -2155.155962c  -4.77  -7.22c   +2.0000           3
iter:   8 05:36:54 -2155.155240c  -4.92  -5.68c   +2.0000           3
iter:   9 06:08:02 -2155.155982c  -5.24  -5.94c   +2.0000           3
iter:  10 06:39:11 -2155.156530c  -5.40  -6.52c   +2.0000           3
iter:  11 07:10:19 -2155.156660c  -5.40  -6.71c   +2.0000           3
iter:  12 07:41:28 -2155.156884c  -5.52  -6.79c   +2.0000           3
iter:  13 08:12:40 -2155.157620c  -5.87  -5.88c   +2.0000           3
iter:  14 08:43:48 -2155.157415c  -5.65  -6.02c   +2.0000           3
iter:  15 09:14:58 -2155.156587c  -6.18  -6.26c   +2.0000           3
iter:  16 09:46:12 -2155.156863c  -6.30  -7.15c   +2.0000           3
iter:  17 10:17:23 -2155.156783c  -6.33  -6.61c   +2.0000           3
iter:  18 10:48:37 -2155.156802c  -6.45  -6.66c   +2.0000           3
iter:  19 11:19:49 -2155.157026c  -6.21  -6.76c   +2.0000           3
iter:  20 11:50:55 -2155.156810c  -6.59  -6.60c   +2.0000           3
iter:  21 12:22:05 -2155.156975c  -6.98  -7.27c   +2.0000           3
iter:  22 12:53:14 -2155.156923c  -7.40c -7.36c   +2.0000           3

Occupied states converged after 84 e/g evaluations
Unoccupied states are not converged.

Converged after 22 iterations.

Dipole moment: (0.879279, 0.879279, 0.879279) |e|*Ang

Total magnetic moment: (0.000000, 0.000000, 2.000000)
Local magnetic moments:
   0 C  ( 0.000000,  0.000000, -0.000003)
   1 C  ( 0.000000,  0.000000,  0.000016)
   2 C  ( 0.000000,  0.000000,  0.000016)
   3 C  ( 0.000000,  0.000000,  0.000016)
   4 C  ( 0.000000,  0.000000,  0.000405)
   5 C  ( 0.000000,  0.000000,  0.000452)
   6 C  ( 0.000000,  0.000000,  0.000405)
   7 C  ( 0.000000,  0.000000,  0.000405)
   8 C  ( 0.000000,  0.000000, -0.000018)
   9 C  ( 0.000000,  0.000000, -0.000139)
  10 C  ( 0.000000,  0.000000,  0.000050)
  11 C  ( 0.000000,  0.000000, -0.000139)
  12 C  ( 0.000000,  0.000000,  0.000983)
  13 C  ( 0.000000,  0.000000,  0.000155)
  14 C  ( 0.000000,  0.000000,  0.000983)
  15 C  ( 0.000000,  0.000000,  0.000241)
  16 C  ( 0.000000,  0.000000,  0.000738)
  17 C  ( 0.000000,  0.000000, -0.000058)
  18 C  ( 0.000000,  0.000000,  0.001048)
  19 C  ( 0.000000,  0.000000, -0.000058)
  20 C  ( 0.000000,  0.000000,  0.000187)
  21 C  ( 0.000000,  0.000000,  0.000623)
  22 C  ( 0.000000,  0.000000,  0.000187)
  23 C  ( 0.000000,  0.000000,  0.001269)
  24 C  ( 0.000000,  0.000000, -0.000018)
  25 C  ( 0.000000,  0.000000, -0.000139)
  26 C  ( 0.000000,  0.000000, -0.000139)
  27 C  ( 0.000000,  0.000000,  0.000050)
  28 C  ( 0.000000,  0.000000,  0.000241)
  29 C  ( 0.000000,  0.000000,  0.000155)
  30 C  ( 0.000000,  0.000000,  0.000983)
  31 C  ( 0.000000,  0.000000,  0.000983)
  32 C  ( 0.000000,  0.000000, -0.000080)
  33 C  ( 0.000000,  0.000000, -0.001159)
  34 C  ( 0.000000,  0.000000, -0.000076)
  35 C  ( 0.000000,  0.000000, -0.000076)
  36 C  ( 0.000000,  0.000000,  0.000112)
  37 C  ( 0.000000,  0.000000,  0.001127)
  38 C  ( 0.000000,  0.000000,  0.000865)
  39 C  ( 0.000000,  0.000000,  0.000112)
  40 C  ( 0.000000,  0.000000,  0.001213)
  41 C  ( 0.000000,  0.000000, -0.000337)
  42 C  ( 0.000000,  0.000000, -0.000150)
  43 C  ( 0.000000,  0.000000, -0.000072)
  44 C  ( 0.000000,  0.000000,  0.000946)
  45 C  ( 0.000000,  0.000000,  0.000042)
  46 C  ( 0.000000,  0.000000,  0.000056)
  47 C  ( 0.000000,  0.000000,  0.000640)
  48 C  ( 0.000000,  0.000000,  0.000738)
  49 C  ( 0.000000,  0.000000, -0.000058)
  50 C  ( 0.000000,  0.000000, -0.000058)
  51 C  ( 0.000000,  0.000000,  0.001048)
  52 C  ( 0.000000,  0.000000,  0.001269)
  53 C  ( 0.000000,  0.000000,  0.000623)
  54 C  ( 0.000000,  0.000000,  0.000187)
  55 C  ( 0.000000,  0.000000,  0.000187)
  56 C  ( 0.000000,  0.000000,  0.001213)
  57 C  ( 0.000000,  0.000000, -0.000337)
  58 C  ( 0.000000,  0.000000, -0.000072)
  59 C  ( 0.000000,  0.000000, -0.000150)
  60 C  ( 0.000000,  0.000000,  0.000640)
  61 C  ( 0.000000,  0.000000,  0.000042)
  62 C  ( 0.000000,  0.000000,  0.000056)
  63 C  ( 0.000000,  0.000000,  0.000946)
  64 C  ( 0.000000,  0.000000, -0.000668)
  65 C  ( 0.000000,  0.000000, -0.000398)
  66 C  ( 0.000000,  0.000000, -0.000093)
  67 C  ( 0.000000,  0.000000, -0.000093)
  68 C  ( 0.000000,  0.000000,  0.000080)
  69 C  ( 0.000000,  0.000000,  0.000683)
  70 C  ( 0.000000,  0.000000,  0.000783)
  71 C  ( 0.000000,  0.000000,  0.000080)
  72 C  ( 0.000000,  0.000000, -0.000018)
  73 C  ( 0.000000,  0.000000,  0.000050)
  74 C  ( 0.000000,  0.000000, -0.000139)
  75 C  ( 0.000000,  0.000000, -0.000139)
  76 C  ( 0.000000,  0.000000,  0.000983)
  77 C  ( 0.000000,  0.000000,  0.000155)
  78 C  ( 0.000000,  0.000000,  0.000241)
  79 C  ( 0.000000,  0.000000,  0.000983)
  80 C  ( 0.000000,  0.000000, -0.000080)
  81 C  ( 0.000000,  0.000000, -0.000076)
  82 C  ( 0.000000,  0.000000, -0.000076)
  83 C  ( 0.000000,  0.000000, -0.001159)
  84 C  ( 0.000000,  0.000000,  0.000865)
  85 C  ( 0.000000,  0.000000,  0.001127)
  86 C  ( 0.000000,  0.000000,  0.000112)
  87 C  ( 0.000000,  0.000000,  0.000112)
  88 C  ( 0.000000,  0.000000,  0.001213)
  89 C  ( 0.000000,  0.000000, -0.000072)
  90 C  ( 0.000000,  0.000000, -0.000150)
  91 C  ( 0.000000,  0.000000, -0.000337)
  92 C  ( 0.000000,  0.000000,  0.000056)
  93 C  ( 0.000000,  0.000000,  0.000042)
  94 C  ( 0.000000,  0.000000,  0.000946)
  95 C  ( 0.000000,  0.000000,  0.000640)
  96 C  ( 0.000000,  0.000000, -0.000080)
  97 C  ( 0.000000,  0.000000, -0.000076)
  98 C  ( 0.000000,  0.000000, -0.001159)
  99 C  ( 0.000000,  0.000000, -0.000076)
 100 C  ( 0.000000,  0.000000,  0.000112)
 101 C  ( 0.000000,  0.000000,  0.001127)
 102 C  ( 0.000000,  0.000000,  0.000112)
 103 C  ( 0.000000,  0.000000,  0.000865)
 104 C  ( 0.000000,  0.000000,  0.000318)
 105 C  ( 0.000000,  0.000000, -0.000396)
 106 C  ( 0.000000,  0.000000, -0.000396)
 107 C  ( 0.000000,  0.000000, -0.000396)
 108 C  ( 0.000000,  0.000000,  0.004002)
 109 C  ( 0.000000,  0.000000,  0.000550)
 110 C  ( 0.000000,  0.000000,  0.004002)
 111 C  ( 0.000000,  0.000000,  0.004002)
 112 C  ( 0.000000,  0.000000,  0.002619)
 113 C  ( 0.000000,  0.000000, -0.001120)
 114 C  ( 0.000000,  0.000000, -0.000514)
 115 C  ( 0.000000,  0.000000, -0.001120)
 116 C  ( 0.000000,  0.000000,  0.013325)
 117 C  ( 0.000000,  0.000000,  0.013561)
 118 C  ( 0.000000,  0.000000,  0.013325)
 119 C  ( 0.000000,  0.000000,  0.188542)
 120 C  ( 0.000000,  0.000000,  0.001213)
 121 C  ( 0.000000,  0.000000, -0.000072)
 122 C  ( 0.000000,  0.000000, -0.000337)
 123 C  ( 0.000000,  0.000000, -0.000150)
 124 C  ( 0.000000,  0.000000,  0.000640)
 125 C  ( 0.000000,  0.000000,  0.000042)
 126 C  ( 0.000000,  0.000000,  0.000946)
 127 C  ( 0.000000,  0.000000,  0.000056)
 128 C  ( 0.000000,  0.000000,  0.002619)
 129 C  ( 0.000000,  0.000000, -0.001120)
 130 C  ( 0.000000,  0.000000, -0.001120)
 131 C  ( 0.000000,  0.000000, -0.000514)
 132 C  ( 0.000000,  0.000000,  0.188542)
 133 C  ( 0.000000,  0.000000,  0.013561)
 134 C  ( 0.000000,  0.000000,  0.013325)
 135 C  ( 0.000000,  0.000000,  0.013325)
 136 C  ( 0.000000,  0.000000, -0.000881)
 137 C  ( 0.000000,  0.000000, -0.000364)
 138 C  ( 0.000000,  0.000000, -0.004776)
 139 C  ( 0.000000,  0.000000, -0.004776)
 140 C  ( 0.000000,  0.000000,  0.003220)
 141 C  ( 0.000000,  0.000000,  0.004393)
 142 C  ( 0.000000,  0.000000,  0.000068)
 143 C  ( 0.000000,  0.000000,  0.003220)
 144 C  ( 0.000000,  0.000000,  0.000738)
 145 C  ( 0.000000,  0.000000,  0.001048)
 146 C  ( 0.000000,  0.000000, -0.000058)
 147 C  ( 0.000000,  0.000000, -0.000058)
 148 C  ( 0.000000,  0.000000,  0.000187)
 149 C  ( 0.000000,  0.000000,  0.000623)
 150 C  ( 0.000000,  0.000000,  0.001269)
 151 C  ( 0.000000,  0.000000,  0.000187)
 152 C  ( 0.000000,  0.000000,  0.001213)
 153 C  ( 0.000000,  0.000000, -0.000150)
 154 C  ( 0.000000,  0.000000, -0.000072)
 155 C  ( 0.000000,  0.000000, -0.000337)
 156 C  ( 0.000000,  0.000000,  0.000056)
 157 C  ( 0.000000,  0.000000,  0.000042)
 158 C  ( 0.000000,  0.000000,  0.000640)
 159 C  ( 0.000000,  0.000000,  0.000946)
 160 C  ( 0.000000,  0.000000, -0.000668)
 161 C  ( 0.000000,  0.000000, -0.000093)
 162 C  ( 0.000000,  0.000000, -0.000093)
 163 C  ( 0.000000,  0.000000, -0.000398)
 164 C  ( 0.000000,  0.000000,  0.000783)
 165 C  ( 0.000000,  0.000000,  0.000683)
 166 C  ( 0.000000,  0.000000,  0.000080)
 167 C  ( 0.000000,  0.000000,  0.000080)
 168 C  ( 0.000000,  0.000000,  0.001213)
 169 C  ( 0.000000,  0.000000, -0.000150)
 170 C  ( 0.000000,  0.000000, -0.000337)
 171 C  ( 0.000000,  0.000000, -0.000072)
 172 C  ( 0.000000,  0.000000,  0.000946)
 173 C  ( 0.000000,  0.000000,  0.000042)
 174 C  ( 0.000000,  0.000000,  0.000640)
 175 C  ( 0.000000,  0.000000,  0.000056)
 176 C  ( 0.000000,  0.000000,  0.002619)
 177 C  ( 0.000000,  0.000000, -0.000514)
 178 C  ( 0.000000,  0.000000, -0.001120)
 179 C  ( 0.000000,  0.000000, -0.001120)
 180 C  ( 0.000000,  0.000000,  0.013325)
 181 C  ( 0.000000,  0.000000,  0.013561)
 182 C  ( 0.000000,  0.000000,  0.188542)
 183 C  ( 0.000000,  0.000000,  0.013325)
 184 C  ( 0.000000,  0.000000, -0.000881)
 185 C  ( 0.000000,  0.000000, -0.004776)
 186 C  ( 0.000000,  0.000000, -0.004776)
 187 C  ( 0.000000,  0.000000, -0.000364)
 188 C  ( 0.000000,  0.000000,  0.000068)
 189 C  ( 0.000000,  0.000000,  0.004393)
 190 C  ( 0.000000,  0.000000,  0.003220)
 191 C  ( 0.000000,  0.000000,  0.003220)
 192 C  ( 0.000000,  0.000000, -0.000668)
 193 C  ( 0.000000,  0.000000, -0.000093)
 194 C  ( 0.000000,  0.000000, -0.000398)
 195 C  ( 0.000000,  0.000000, -0.000093)
 196 C  ( 0.000000,  0.000000,  0.000080)
 197 C  ( 0.000000,  0.000000,  0.000683)
 198 C  ( 0.000000,  0.000000,  0.000080)
 199 C  ( 0.000000,  0.000000,  0.000783)
 200 C  ( 0.000000,  0.000000, -0.000881)
 201 C  ( 0.000000,  0.000000, -0.004776)
 202 C  ( 0.000000,  0.000000, -0.000364)
 203 C  ( 0.000000,  0.000000, -0.004776)
 204 C  ( 0.000000,  0.000000,  0.003220)
 205 C  ( 0.000000,  0.000000,  0.004393)
 206 C  ( 0.000000,  0.000000,  0.003220)
 207 C  ( 0.000000,  0.000000,  0.000068)
 208 C  ( 0.000000,  0.000000, -0.001447)
 209 C  ( 0.000000,  0.000000, -0.001447)
 210 C  ( 0.000000,  0.000000, -0.001447)
 211 C  ( 0.000000,  0.000000,  0.006390)
 212 N  ( 0.000000,  0.000000,  0.095322)
 213 C  ( 0.000000,  0.000000,  0.006390)
 214 C  ( 0.000000,  0.000000,  0.006390)

Energy contributions relative to reference atoms: (reference = -221394.138216)

Kinetic:       +1744.839906
Potential:     -1572.756325
External:        +0.000000
XC:            -2330.086281
Entropy (-ST):   +0.000000
Local:           +2.845753
SIC:             +0.000000
--------------------------
Free energy:   -2155.156947
Extrapolated:  -2155.156947

HYB_GGA_XC_HSE06 + 0.25 * EXX(omega = 0.11 bohr^-1)
Short-range Coulomb: erfc(omega*r)/r (omega = 0.11 bohr^-1)
Spin contamination: 0.164117 electrons
                   Up                     Down
 Band  Eigenvalues  Occupancy  Eigenvalues  Occupancy
    0    -12.15743    1.00000    -12.14167    1.00000
    1    -11.42422    1.00000    -11.36239    1.00000
    2    -11.02260    1.00000    -11.01993    1.00000
    3    -11.02260    1.00000    -11.01993    1.00000
    4    -10.96509    1.00000    -10.95822    1.00000
    5    -10.96509    1.00000    -10.95822    1.00000
    6    -10.89478    1.00000    -10.87822    1.00000
    7    -10.42632    1.00000    -10.38697    1.00000
    8     -9.93754    1.00000     -9.93417    1.00000
    9     -9.93754    1.00000     -9.93417    1.00000
   10     -9.91492    1.00000     -9.91299    1.00000
   11     -9.91492    1.00000     -9.91299    1.00000
   12     -9.89088    1.00000     -9.88715    1.00000
   13     -9.87541    1.00000     -9.87030    1.00000
   14     -9.86702    1.00000     -9.86079    1.00000
   15     -9.86702    1.00000     -9.86079    1.00000
   16     -9.80065    1.00000     -9.78325    1.00000
   17     -9.80065    1.00000     -9.78325    1.00000
   18     -9.63557    1.00000     -9.60516    1.00000
   19     -9.13749    1.00000     -9.11223    1.00000
   20     -8.80432    1.00000     -8.79811    1.00000
   21     -8.80432    1.00000     -8.79668    1.00000
   22     -8.80336    1.00000     -8.79668    1.00000
   23     -8.76682    1.00000     -8.75873    1.00000
   24     -8.76111    1.00000     -8.74491    1.00000
   25     -8.76111    1.00000     -8.74491    1.00000
   26     -8.59220    1.00000     -8.56135    1.00000
   27     -7.97653    1.00000     -7.93978    1.00000
   28     -7.71661    1.00000     -7.70993    1.00000
   29     -7.71661    1.00000     -7.70993    1.00000
   30     -7.68579    1.00000     -7.67553    1.00000
   31     -7.68579    1.00000     -7.67553    1.00000
   32     -7.62938    1.00000     -7.61871    1.00000
   33     -7.33485    1.00000     -7.29789    1.00000
   34     -6.77223    1.00000     -6.76375    1.00000
   35     -6.77223    1.00000     -6.76375    1.00000
   36     -6.73260    1.00000     -6.73001    1.00000
   37     -6.73260    1.00000     -6.73001    1.00000
   38     -6.72472    1.00000     -6.72427    1.00000
   39     -6.71032    1.00000     -6.70578    1.00000
   40     -6.71032    1.00000     -6.70578    1.00000
   41     -6.70850    1.00000     -6.70570    1.00000
   42     -6.70061    1.00000     -6.69825    1.00000
   43     -6.70011    1.00000     -6.69743    1.00000
   44     -6.70011    1.00000     -6.69743    1.00000
   45     -6.67627    1.00000     -6.67267    1.00000
   46     -6.67627    1.00000     -6.67195    1.00000
   47     -6.67422    1.00000     -6.67195    1.00000
   48     -6.64799    1.00000     -6.63638    1.00000
   49     -6.64799    1.00000     -6.63638    1.00000
   50     -6.62414    1.00000     -6.61640    1.00000
   51     -6.62249    1.00000     -6.61293    1.00000
   52     -6.62095    1.00000     -6.61007    1.00000
   53     -6.62095    1.00000     -6.61007    1.00000
   54     -6.53157    1.00000     -6.50275    1.00000
   55     -6.53157    1.00000     -6.50275    1.00000
   56     -6.35792    1.00000     -6.34015    1.00000
   57     -6.16403    1.00000     -6.15067    1.00000
   58     -5.92600    1.00000     -5.92090    1.00000
   59     -5.92600    1.00000     -5.92090    1.00000
   60     -5.86885    1.00000     -5.86455    1.00000
   61     -5.85929    1.00000     -5.85454    1.00000
   62     -5.85929    1.00000     -5.85454    1.00000
   63     -5.84874    1.00000     -5.84105    1.00000
   64     -5.84435    1.00000     -5.83912    1.00000
   65     -5.84435    1.00000     -5.83912    1.00000
   66     -5.84269    1.00000     -5.83890    1.00000
   67     -5.81969    1.00000     -5.81491    1.00000
   68     -5.81969    1.00000     -5.81491    1.00000
   69     -5.80216    1.00000     -5.79520    1.00000
   70     -5.80216    1.00000     -5.79520    1.00000
   71     -5.80038    1.00000     -5.78944    1.00000
   72     -5.77489    1.00000     -5.76966    1.00000
   73     -5.77489    1.00000     -5.76966    1.00000
   74     -5.73360    1.00000     -5.72162    1.00000
   75     -5.72805    1.00000     -5.71483    1.00000
   76     -5.72805    1.00000     -5.71483    1.00000
   77     -5.69495    1.00000     -5.68165    1.00000
   78     -5.55400    1.00000     -5.47516    1.00000
   79     -5.55400    1.00000     -5.47516    1.00000
   80     -4.85091    1.00000     -4.76891    1.00000
   81     -4.21646    1.00000     -4.19561    1.00000
   82     -4.03501    1.00000     -4.02887    1.00000
   83     -4.03501    1.00000     -4.02887    1.00000
   84     -3.97506    1.00000     -3.96388    1.00000
   85     -3.97506    1.00000     -3.96388    1.00000
   86     -3.96704    1.00000     -3.96084    1.00000
   87     -3.96094    1.00000     -3.95213    1.00000
   88     -3.96094    1.00000     -3.95213    1.00000
   89     -3.94376    1.00000     -3.93820    1.00000
   90     -3.89279    1.00000     -3.85417    1.00000
   91     -3.89279    1.00000     -3.85417    1.00000
   92     -3.51416    1.00000     -3.43634    1.00000
   93     -2.64340    1.00000     -2.61864    1.00000
   94     -2.57957    1.00000     -2.57366    1.00000
   95     -2.57957    1.00000     -2.57366    1.00000
   96     -2.54549    1.00000     -2.53702    1.00000
   97     -2.54549    1.00000     -2.53702    1.00000
   98     -2.50297    1.00000     -2.49416    1.00000
   99     -2.29225    1.00000     -2.25255    1.00000
  100     -2.12230    1.00000     -2.11288    1.00000
  101     -2.12230    1.00000     -2.11288    1.00000
  102     -2.02406    1.00000     -2.02392    1.00000
  103     -2.02356    1.00000     -2.02134    1.00000
  104     -2.02356    1.00000     -2.02134    1.00000
  105     -2.01403    1.00000     -2.01127    1.00000
  106     -2.01403    1.00000     -2.01127    1.00000
  107     -2.01263    1.00000     -2.00861    1.00000
  108     -2.00325    1.00000     -1.99597    1.00000
  109     -2.00325    1.00000     -1.99597    1.00000
  110     -1.99743    1.00000     -1.99549    1.00000
  111     -1.96481    1.00000     -1.96204    1.00000
  112     -1.96481    1.00000     -1.96204    1.00000
  113     -1.94858    1.00000     -1.93860    1.00000
  114     -1.91437    1.00000     -1.90201    1.00000
  115     -1.89596    1.00000     -1.88370    1.00000
  116     -1.89596    1.00000     -1.88370    1.00000
  117     -1.86428    1.00000     -1.84994    1.00000
  118     -1.86428    1.00000     -1.84994    1.00000
  119     -1.85496    1.00000     -1.84908    1.00000
  120     -1.82706    1.00000     -1.80457    1.00000
  121     -1.82706    1.00000     -1.80457    1.00000
  122     -1.77737    1.00000     -1.77209    1.00000
  123     -1.74973    1.00000     -1.74380    1.00000
  124     -1.74973    1.00000     -1.74380    1.00000
  125     -1.73889    1.00000     -1.72858    1.00000
  126     -1.72078    1.00000     -1.71528    1.00000
  127     -1.70657    1.00000     -1.70136    1.00000
  128     -1.70657    1.00000     -1.70136    1.00000
  129     -1.70205    1.00000     -1.69999    1.00000
  130     -1.69791    1.00000     -1.68696    1.00000
  131     -1.69386    1.00000     -1.68696    1.00000
  132     -1.69386    1.00000     -1.68393    1.00000
  133     -1.67060    1.00000     -1.66628    1.00000
  134     -1.67060    1.00000     -1.66628    1.00000
  135     -1.64615    1.00000     -1.63807    1.00000
  136     -1.64615    1.00000     -1.63807    1.00000
  137     -1.62860    1.00000     -1.62213    1.00000
  138     -1.62800    1.00000     -1.62103    1.00000
  139     -1.62800    1.00000     -1.62103    1.00000
  140     -1.62582    1.00000     -1.60270    1.00000
  141     -1.62582    1.00000     -1.60270    1.00000
  142     -1.61470    1.00000     -1.56975    1.00000
  143     -1.40118    1.00000     -1.37242    1.00000
  144     -1.26221    1.00000     -1.20103    1.00000
  145     -1.26221    1.00000     -1.20103    1.00000
  146     -0.85860    1.00000     -0.82694    1.00000
  147     -0.58641    1.00000     -0.57533    1.00000
  148     -0.58516    1.00000     -0.57533    1.00000
  149     -0.58516    1.00000     -0.55671    1.00000
  150     -0.52005    1.00000     -0.51520    1.00000
  151     -0.52005    1.00000     -0.51520    1.00000
  152     -0.51949    1.00000     -0.51454    1.00000
  153     -0.49978    1.00000     -0.49023    1.00000
  154     -0.48527    1.00000     -0.47765    1.00000
  155     -0.48527    1.00000     -0.47765    1.00000
  156     -0.33533    1.00000     -0.25748    1.00000
  157     -0.33533    1.00000     -0.25748    1.00000
  158      0.67964    1.00000      0.79837    1.00000
  159      1.12003    1.00000      1.13555    1.00000
  160      1.12003    1.00000      1.13555    1.00000
  161      1.15980    1.00000      1.17950    1.00000
  162      1.23429    1.00000      1.25107    1.00000
  163      1.26243    1.00000      1.26813    1.00000
  164      1.26243    1.00000      1.26872    1.00000
  165      1.26259    1.00000      1.26872    1.00000
  166      1.27091    1.00000      1.27412    1.00000
  167      1.27091    1.00000      1.27412    1.00000
  168      1.27865    1.00000      1.29133    1.00000
  169      1.29394    1.00000      1.29661    1.00000
  170      1.29417    1.00000      1.29737    1.00000
  171      1.30855    1.00000      1.31211    1.00000
  172      1.30855    1.00000      1.31211    1.00000
  173      1.33385    1.00000      1.34352    1.00000
  174      1.33385    1.00000      1.34352    1.00000
  175      1.43226    1.00000      1.45260    1.00000
  176      1.44439    1.00000      1.46590    1.00000
  177      1.44439    1.00000      1.46590    1.00000
  178      1.46127    1.00000      1.48809    1.00000
  179      1.79178    1.00000      1.80526    1.00000
  180      1.79178    1.00000      1.80526    1.00000
  181      1.83649    1.00000      1.87323    1.00000
  182      1.92767    1.00000      1.92908    1.00000
  183      1.93172    1.00000      1.93462    1.00000
  184      1.93172    1.00000      1.93462    1.00000
  185      1.93809    1.00000      1.94105    1.00000
  186      1.93964    1.00000      1.94577    1.00000
  187      1.93964    1.00000      1.94577    1.00000
  188      1.94755    1.00000      1.95542    1.00000
  189      1.94755    1.00000      1.95542    1.00000
  190      1.95031    1.00000      1.96582    1.00000
  191      1.96354    1.00000      1.97841    1.00000
  192      1.97169    1.00000      1.97841    1.00000
  193      1.97169    1.00000      1.97868    1.00000
  194      1.97285    1.00000      1.98295    1.00000
  195      1.97285    1.00000      1.98295    1.00000
  196      1.99173    1.00000      2.00806    1.00000
  197      2.01721    1.00000      2.03034    1.00000
  198      2.01721    1.00000      2.03034    1.00000
  199      2.02430    1.00000      2.03423    1.00000
  200      2.24100    1.00000      2.32045    1.00000
  201      2.24100    1.00000      2.32045    1.00000
  202      2.81933    1.00000      2.83507    1.00000
  203      2.81933    1.00000      2.83507    1.00000
  204      2.85866    1.00000      2.89521    1.00000
  205      2.95407    1.00000      2.95688    1.00000
  206      2.95522    1.00000      2.95688    1.00000
  207      2.95522    1.00000      2.95979    1.00000
  208      2.96039    1.00000      2.96432    1.00000
  209      2.96039    1.00000      2.96432    1.00000
  210      2.96266    1.00000      2.96436    1.00000
  211      2.97788    1.00000      2.97990    1.00000
  212      2.98205    1.00000      2.98667    1.00000
  213      2.98205    1.00000      2.98667    1.00000
  214      3.00525    1.00000      3.00969    1.00000
  215      3.00525    1.00000      3.00969    1.00000
  216      3.06066    1.00000      3.06960    1.00000
  217      3.06066    1.00000      3.06960    1.00000
  218      3.07288    1.00000      3.07872    1.00000
  219      3.07719    1.00000      3.09376    1.00000
  220      3.09284    1.00000      3.10193    1.00000
  221      3.12215    1.00000      3.13874    1.00000
  222      3.12215    1.00000      3.13874    1.00000
  223      3.14782    1.00000      3.16905    1.00000
  224      3.20052    1.00000      3.21282    1.00000
  225      3.20052    1.00000      3.21282    1.00000
  226      3.24474    1.00000      3.29669    1.00000
  227      3.40325    1.00000      3.41539    1.00000
  228      3.40325    1.00000      3.41539    1.00000
  229      3.48702    1.00000      3.50532    1.00000
  230      3.53134    1.00000      3.53555    1.00000
  231      3.53134    1.00000      3.53555    1.00000
  232      3.55760    1.00000      3.56215    1.00000
  233      3.56241    1.00000      3.56732    1.00000
  234      3.56241    1.00000      3.56732    1.00000
  235      3.56859    1.00000      3.57312    1.00000
  236      3.57114    1.00000      3.57942    1.00000
  237      3.57313    1.00000      3.57942    1.00000
  238      3.57313    1.00000      3.58450    1.00000
  239      3.57503    1.00000      3.59040    1.00000
  240      3.58195    1.00000      3.59040    1.00000
  241      3.58195    1.00000      3.59468    1.00000
  242      3.59673    1.00000      3.60517    1.00000
  243      3.60204    1.00000      3.61546    1.00000
  244      3.60204    1.00000      3.61546    1.00000
  245      3.60522    1.00000      3.63448    1.00000
  246      3.63154    1.00000      3.63655    1.00000
  247      3.63154    1.00000      3.64339    1.00000
  248      3.63287    1.00000      3.64339    1.00000
  249      3.64773    1.00000      3.65841    1.00000
  250      3.64773    1.00000      3.65841    1.00000
  251      3.68818    1.00000      3.71646    1.00000
  252      3.68818    1.00000      3.71646    1.00000
  253      3.98093    1.00000      4.04253    1.00000
  254      4.06124    1.00000      4.12195    1.00000
  255      4.06124    1.00000      4.12195    1.00000
  256      4.59643    1.00000      4.60916    1.00000
  257      4.59643    1.00000      4.60916    1.00000
  258      4.67238    1.00000      4.69176    1.00000
  259      4.68226    1.00000      4.70274    1.00000
  260      4.72002    1.00000      4.74108    1.00000
  261      4.72002    1.00000      4.74108    1.00000
  262      4.79173    1.00000      4.91371    1.00000
  263      5.16551    1.00000      5.18922    1.00000
  264      5.16551    1.00000      5.18922    1.00000
  265      5.27620    1.00000      5.29177    1.00000
  266      5.28729    1.00000      5.29177    1.00000
  267      5.28729    1.00000      5.29288    1.00000
  268      5.31216    1.00000      5.31664    1.00000
  269      5.31480    1.00000      5.32305    1.00000
  270      5.31480    1.00000      5.32305    1.00000
  271      5.33129    1.00000      5.36146    1.00000
  272      5.40058    1.00000      5.42158    1.00000
  273      5.40058    1.00000      5.42158    1.00000
  274      5.55707    1.00000      5.56942    1.00000
  275      5.55707    1.00000      5.56942    1.00000
  276      5.67363    1.00000      5.72051    1.00000
  277      5.74395    1.00000      5.75371    1.00000
  278      5.74794    1.00000      5.75610    1.00000
  279      5.74794    1.00000      5.75610    1.00000
  280      5.74920    1.00000      5.77923    1.00000
  281      5.76693    1.00000      5.77923    1.00000
  282      5.76693    1.00000      5.77945    1.00000
  283      5.79539    1.00000      5.80615    1.00000
  284      5.82209    1.00000      5.83547    1.00000
  285      5.82209    1.00000      5.83547    1.00000
  286      5.83552    1.00000      5.85811    1.00000
  287      5.96377    1.00000      5.97885    1.00000
  288      5.96377    1.00000      5.97885    1.00000
  289      6.00370    1.00000      6.00956    1.00000
  290      6.03070    1.00000      6.03470    1.00000
  291      6.03750    1.00000      6.04217    1.00000
  292      6.03750    1.00000      6.04217    1.00000
  293      6.05583    1.00000      6.06005    1.00000
  294      6.05898    1.00000      6.06315    1.00000
  295      6.05898    1.00000      6.06315    1.00000
  296      6.06160    1.00000      6.06568    1.00000
  297      6.06160    1.00000      6.06568    1.00000
  298      6.07284    1.00000      6.07527    1.00000
  299      6.07813    1.00000      6.08116    1.00000
  300      6.07813    1.00000      6.08116    1.00000
  301      6.08041    1.00000      6.08780    1.00000
  302      6.11337    1.00000      6.12134    1.00000
  303      6.11337    1.00000      6.12134    1.00000
  304      6.12632    1.00000      6.13200    1.00000
  305      6.13042    1.00000      6.14386    1.00000
  306      6.13042    1.00000      6.14386    1.00000
  307      6.13834    1.00000      6.15048    1.00000
  308      6.13834    1.00000      6.15048    1.00000
  309      6.15058    1.00000      6.16279    1.00000
  310      6.20640    1.00000      6.21522    1.00000
  311      6.20640    1.00000      6.21522    1.00000
  312      6.23806    1.00000      6.24987    1.00000
  313      6.27546    1.00000      6.27742    1.00000
  314      6.27651    1.00000      6.27798    1.00000
  315      6.27663    1.00000      6.28056    1.00000
  316      6.27663    1.00000      6.28057    1.00000
  317      6.28949    1.00000      6.29282    1.00000
  318      6.28949    1.00000      6.29282    1.00000
  319      6.29115    1.00000      6.29493    1.00000
  320      6.29115    1.00000      6.29493    1.00000
  321      6.29236    1.00000      6.30892    1.00000
  322      6.30235    1.00000      6.31183    1.00000
  323      6.30843    1.00000      6.31248    1.00000
  324      6.31540    1.00000      6.32094    1.00000
  325      6.31540    1.00000      6.32094    1.00000
  326      6.32582    1.00000      6.33536    1.00000
  327      6.33005    1.00000      6.33536    1.00000
  328      6.33005    1.00000      6.33679    1.00000
  329      6.33158    1.00000      6.33831    1.00000
  330      6.33944    1.00000      6.34372    1.00000
  331      6.33944    1.00000      6.34372    1.00000
  332      6.34602    1.00000      6.35451    1.00000
  333      6.34602    1.00000      6.35451    1.00000
  334      6.35851    1.00000      6.36674    1.00000
  335      6.35851    1.00000      6.36674    1.00000
  336      6.36394    1.00000      6.37854    1.00000
  337      6.36487    1.00000      6.37854    1.00000
  338      6.36487    1.00000      6.38109    1.00000
  339      6.37888    1.00000      6.39372    1.00000
  340      6.38895    1.00000      6.40061    1.00000
  341      6.38895    1.00000      6.40062    1.00000
  342      6.39605    1.00000      6.41132    1.00000
  343      6.41492    1.00000      6.42141    1.00000
  344      6.41492    1.00000      6.42141    1.00000
  345      6.43348    1.00000      6.46180    1.00000
  346      6.44559    1.00000      6.46180    1.00000
  347      6.44560    1.00000      6.48222    1.00000
  348      6.47667    1.00000      6.49091    1.00000
  349      6.49656    1.00000      6.50396    1.00000
  350      6.50063    1.00000      6.53416    1.00000
  351      6.50063    1.00000      6.53416    1.00000
  352      6.51825    1.00000      6.53877    1.00000
  353      6.62947    1.00000      6.67863    1.00000
  354      6.62947    1.00000      6.67863    1.00000
  355      6.89111    1.00000      6.92748    1.00000
  356      6.91805    1.00000      6.94383    1.00000
  357      6.91805    1.00000      6.94383    1.00000
  358      7.09517    1.00000      7.10427    1.00000
  359      7.09517    1.00000      7.10427    1.00000
  360      7.17652    1.00000      7.18108    1.00000
  361      7.17652    1.00000      7.18108    1.00000
  362      7.17845    1.00000      7.18145    1.00000
  363      7.18563    1.00000      7.18761    1.00000
  364      7.21587    1.00000      7.22321    1.00000
  365      7.21587    1.00000      7.22321    1.00000
  366      7.21724    1.00000      7.22939    1.00000
  367      7.22496    1.00000      7.23783    1.00000
  368      7.24814    1.00000      7.25724    1.00000
  369      7.24814    1.00000      7.25724    1.00000
  370      7.25503    1.00000      7.26400    1.00000
  371      7.26121    1.00000      7.28052    1.00000
  372      7.26121    1.00000      7.28052    1.00000
  373      7.27275    1.00000      7.29516    1.00000
  374      7.27275    1.00000      7.29516    1.00000
  375      7.29313    1.00000      7.29927    1.00000
  376      7.33058    1.00000      7.37503    1.00000
  377      7.33058    1.00000      7.37503    1.00000
  378      7.42453    1.00000      7.46908    1.00000
  379      7.92968    1.00000      8.09805    1.00000
  380      8.26140    1.00000      8.35705    1.00000
  381      8.26140    1.00000      8.35705    1.00000
  382      8.50370    1.00000      8.72362    1.00000
  383      8.70064    1.00000      8.72362    1.00000
  384      8.70064    1.00000      8.77272    1.00000
  385      8.78036    1.00000      8.78654    1.00000
  386      8.78036    1.00000      8.78654    1.00000
  387      8.79279    1.00000      8.79762    1.00000
  388      8.80798    1.00000      8.81617    1.00000
  389      8.81282    1.00000      8.83712    1.00000
  390      8.82152    1.00000      8.83712    1.00000
  391      8.82152    1.00000      8.85306    1.00000
  392      8.87637    1.00000      8.88272    1.00000
  393      8.87637    1.00000      8.88272    1.00000
  394      8.89812    1.00000      8.90944    1.00000
  395      8.96258    1.00000      8.96818    1.00000
  396      8.96258    1.00000      8.96818    1.00000
  397      9.02624    1.00000      9.04107    1.00000
  398      9.03697    1.00000      9.04473    1.00000
  399      9.03697    1.00000      9.04473    1.00000
  400      9.04517    1.00000      9.05377    1.00000
  401      9.04517    1.00000      9.05377    1.00000
  402      9.05330    1.00000      9.06937    1.00000
  403      9.05330    1.00000      9.06937    1.00000
  404      9.06559    1.00000      9.07212    1.00000
  405      9.08434    1.00000      9.10156    1.00000
  406      9.08434    1.00000      9.10156    1.00000
  407      9.11220    1.00000      9.13482    1.00000
  408      9.12369    1.00000      9.14551    1.00000
  409      9.12369    1.00000      9.14551    1.00000
  410      9.12622    1.00000      9.15099    1.00000
  411      9.14398    1.00000      9.15554    1.00000
  412      9.14398    1.00000      9.15554    1.00000
  413      9.59998    1.00000      9.77537    1.00000
  414      9.79316    1.00000      9.83473    1.00000
  415      9.79316    1.00000      9.83473    1.00000
  416      9.86645    1.00000     10.04568    1.00000
  417     10.03348    1.00000     10.04568    1.00000
  418     10.03348    1.00000     10.05768    1.00000
  419     10.05500    1.00000     10.08973    1.00000
  420     10.07968    1.00000     10.08973    1.00000
  421     10.07968    1.00000     10.09172    1.00000
  422     10.08684    1.00000     10.14624    1.00000
  423     10.13185    1.00000     10.18410    1.00000
  424     10.15739    1.00000     10.18410    1.00000
  425     10.15739    1.00000     10.40201    1.00000
  426     11.18753    1.00000     11.49040    1.00000
  427     11.43560    1.00000     11.49040    1.00000
  428     11.43560    1.00000     11.51452    1.00000
  429     11.92738    1.00000     13.69812    0.00000
  430     13.58526    1.00000     15.69718    0.50000
  431     13.58526    1.00000     15.69718    0.50000
  432     17.05133    0.00000     17.05516    0.00000
  433     17.05133    0.00000     17.05516    0.00000
  434     17.05954    0.00000     17.07793    0.00000
  435     17.10626    0.00000     17.11892    0.00000
  436     17.10626    0.00000     17.11892    0.00000
  437     17.12889    0.00000     17.14028    0.00000
  438     17.61845    0.00000     17.62933    0.00000
  439     17.69506    0.00000     17.70242    0.00000
  440     17.69507    0.00000     17.70242    0.00000
  441     17.71486    0.00000     17.72065    0.00000
  442     17.71486    0.00000     17.72065    0.00000
  443     17.78876    0.00000     17.80352    0.00000

Fermi level: inf

Could not find a gap

Forces in eV/Ang:
  0 C    -0.00993   -0.00993   -0.00993
  1 C    -0.00561   -0.00249   -0.00249
  2 C    -0.00249   -0.00249   -0.00561
  3 C    -0.00249   -0.00561   -0.00249
  4 C     0.00289    0.00590    0.00289
  5 C     0.00816    0.00816    0.00816
  6 C     0.00590    0.00289    0.00289
  7 C     0.00289    0.00289    0.00590
  8 C     0.00053    0.00053    0.00162
  9 C     0.00521    0.00045    0.00154
 10 C    -0.00230   -0.00230   -0.00337
 11 C     0.00045    0.00521    0.00154
 12 C    -0.00384    0.01122    0.02528
 13 C     0.00338    0.00339   -0.00033
 14 C     0.01122   -0.00384    0.02528
 15 C     0.00646    0.00646    0.00302
 16 C    -0.03732   -0.03732   -0.08674
 17 C    -0.00624    0.00023   -0.01060
 18 C    -0.00581   -0.00581   -0.04512
 19 C     0.00023   -0.00624   -0.01060
 20 C     0.00018    0.00267    0.00558
 21 C    -0.00833   -0.00833    0.04537
 22 C     0.00267    0.00018    0.00558
 23 C    -0.00277   -0.00277    0.02041
 24 C     0.00053    0.00162    0.00053
 25 C     0.00521    0.00154    0.00045
 26 C     0.00045    0.00154    0.00521
 27 C    -0.00230   -0.00337   -0.00230
 28 C     0.00646    0.00302    0.00646
 29 C     0.00338   -0.00033    0.00339
 30 C     0.01122    0.02528   -0.00384
 31 C    -0.00384    0.02528    0.01122
 32 C    -0.00195   -0.00035   -0.00035
 33 C    -0.03346    0.00899    0.00899
 34 C    -0.01105   -0.00416   -0.01077
 35 C    -0.01105   -0.01077   -0.00416
 36 C     0.00034   -0.00279   -0.00004
 37 C     0.00907    0.00394    0.00394
 38 C    -0.00682   -0.00800   -0.00800
 39 C     0.00034   -0.00004   -0.00279
 40 C     0.03121   -0.03323   -0.03451
 41 C    -0.00552    0.02014    0.02678
 42 C    -0.00226    0.01110    0.01002
 43 C    -0.00235    0.00463    0.00162
 44 C     0.00450   -0.00028    0.00256
 45 C    -0.00404   -0.00583   -0.02065
 46 C     0.01420   -0.00655   -0.00299
 47 C    -0.00761   -0.01468   -0.00753
 48 C    -0.03732   -0.08674   -0.03732
 49 C    -0.00624   -0.01060    0.00023
 50 C     0.00023   -0.01060   -0.00624
 51 C    -0.00581   -0.04512   -0.00581
 52 C    -0.00277    0.02041   -0.00277
 53 C    -0.00833    0.04537   -0.00833
 54 C     0.00267    0.00558    0.00018
 55 C     0.00018    0.00558    0.00267
 56 C     0.03121   -0.03451   -0.03323
 57 C    -0.00552    0.02678    0.02014
 58 C    -0.00235    0.00162    0.00463
 59 C    -0.00226    0.01002    0.01110
 60 C    -0.00761   -0.00753   -0.01468
 61 C    -0.00404   -0.02065   -0.00583
 62 C     0.01420   -0.00299   -0.00655
 63 C     0.00450    0.00256   -0.00028
 64 C    -0.00743    0.00292    0.00292
 65 C     0.01896   -0.00943   -0.00943
 66 C     0.00153    0.00677    0.00257
 67 C     0.00153    0.00257    0.00677
 68 C     0.01128   -0.00121   -0.00139
 69 C     0.02439   -0.01055   -0.01055
 70 C     0.01171    0.02175    0.02175
 71 C     0.01128   -0.00139   -0.00121
 72 C     0.00162    0.00053    0.00053
 73 C    -0.00337   -0.00230   -0.00230
 74 C     0.00154    0.00045    0.00521
 75 C     0.00154    0.00521    0.00045
 76 C     0.02528    0.01122   -0.00384
 77 C    -0.00033    0.00339    0.00339
 78 C     0.00302    0.00646    0.00646
 79 C     0.02528   -0.00384    0.01122
 80 C    -0.00035   -0.00195   -0.00035
 81 C    -0.01077   -0.01105   -0.00416
 82 C    -0.00416   -0.01105   -0.01077
 83 C     0.00899   -0.03346    0.00899
 84 C    -0.00800   -0.00682   -0.00800
 85 C     0.00394    0.00907    0.00394
 86 C    -0.00279    0.00034   -0.00004
 87 C    -0.00004    0.00034   -0.00279
 88 C    -0.03323    0.03121   -0.03451
 89 C     0.00463   -0.00235    0.00162
 90 C     0.01110   -0.00226    0.01002
 91 C     0.02014   -0.00552    0.02678
 92 C    -0.00655    0.01420   -0.00299
 93 C    -0.00583   -0.00404   -0.02065
 94 C    -0.00028    0.00450    0.00256
 95 C    -0.01468   -0.00762   -0.00753
 96 C    -0.00035   -0.00035   -0.00195
 97 C    -0.01077   -0.00416   -0.01105
 98 C     0.00899    0.00899   -0.03346
 99 C    -0.00416   -0.01077   -0.01105
100 C    -0.00004   -0.00279    0.00034
101 C     0.00394    0.00394    0.00907
102 C    -0.00279   -0.00004    0.00034
103 C    -0.00800   -0.00800   -0.00682
104 C    -0.00496   -0.00496   -0.00496
105 C    -0.03487    0.00439    0.00439
106 C     0.00439    0.00439   -0.03487
107 C     0.00439   -0.03487    0.00439
108 C     0.00894   -0.07587    0.00894
109 C     0.01395    0.01395    0.01395
110 C    -0.07587    0.00894    0.00894
111 C     0.00894    0.00894   -0.07587
112 C    -0.00593   -0.00593   -0.04638
113 C     0.01239    0.01802   -0.01390
114 C     0.25846    0.25846   -0.34546
115 C     0.01802    0.01239   -0.01390
116 C     0.06591   -0.04236    0.10673
117 C     0.00145    0.00145    0.13585
118 C    -0.04236    0.06590    0.10673
119 C    -0.36277   -0.36278    1.78744
120 C    -0.03323   -0.03451    0.03121
121 C     0.00463    0.00162   -0.00235
122 C     0.02014    0.02678   -0.00552
123 C     0.01110    0.01002   -0.00226
124 C    -0.01468   -0.00753   -0.00762
125 C    -0.00583   -0.02065   -0.00404
126 C    -0.00028    0.00256    0.00450
127 C    -0.00655   -0.00299    0.01420
128 C    -0.00593   -0.04638   -0.00593
129 C     0.01239   -0.01390    0.01802
130 C     0.01802   -0.01390    0.01239
131 C     0.25846   -0.34546    0.25846
132 C    -0.36277    1.78744   -0.36278
133 C     0.00145    0.13585    0.00145
134 C    -0.04236    0.10673    0.06590
135 C     0.06591    0.10673   -0.04236
136 C     0.03516    0.00997    0.00997
137 C     0.00889   -0.00514   -0.00514
138 C     0.08911   -0.10197   -0.31003
139 C     0.08911   -0.31003   -0.10197
140 C    -0.02375   -0.01629    0.06590
141 C     0.00769   -0.02299   -0.02299
142 C    -0.01275   -0.00373   -0.00373
143 C    -0.02375    0.06590   -0.01629
144 C    -0.08675   -0.03732   -0.03732
145 C    -0.04512   -0.00581   -0.00581
146 C    -0.01060    0.00023   -0.00624
147 C    -0.01060   -0.00624    0.00023
148 C     0.00558    0.00267    0.00018
149 C     0.04537   -0.00833   -0.00833
150 C     0.02041   -0.00277   -0.00277
151 C     0.00558    0.00018    0.00267
152 C    -0.03451    0.03121   -0.03324
153 C     0.01002   -0.00226    0.01110
154 C     0.00162   -0.00235    0.00463
155 C     0.02678   -0.00552    0.02014
156 C    -0.00299    0.01420   -0.00655
157 C    -0.02065   -0.00404   -0.00583
158 C    -0.00753   -0.00762   -0.01468
159 C     0.00256    0.00450   -0.00028
160 C     0.00292   -0.00743    0.00292
161 C     0.00257    0.00153    0.00677
162 C     0.00677    0.00153    0.00257
163 C    -0.00943    0.01896   -0.00943
164 C     0.02175    0.01171    0.02175
165 C    -0.01055    0.02439   -0.01055
166 C    -0.00121    0.01128   -0.00139
167 C    -0.00139    0.01128   -0.00121
168 C    -0.03451   -0.03324    0.03121
169 C     0.01002    0.01110   -0.00226
170 C     0.02678    0.02014   -0.00552
171 C     0.00162    0.00463   -0.00235
172 C     0.00256   -0.00028    0.00450
173 C    -0.02065   -0.00583   -0.00404
174 C    -0.00753   -0.01468   -0.00762
175 C    -0.00299   -0.00655    0.01420
176 C    -0.04638   -0.00593   -0.00593
177 C    -0.34546    0.25846    0.25846
178 C    -0.01390    0.01802    0.01239
179 C    -0.01390    0.01239    0.01802
180 C     0.10673   -0.04236    0.06590
181 C     0.13585    0.00145    0.00145
182 C     1.78744   -0.36278   -0.36278
183 C     0.10673    0.06590   -0.04236
184 C     0.00997    0.03516    0.00997
185 C    -0.31004    0.08911   -0.10197
186 C    -0.10197    0.08911   -0.31004
187 C    -0.00514    0.00889   -0.00514
188 C    -0.00373   -0.01275   -0.00373
189 C    -0.02299    0.00769   -0.02299
190 C    -0.01629   -0.02375    0.06591
191 C     0.06591   -0.02375   -0.01629
192 C     0.00292    0.00292   -0.00743
193 C     0.00257    0.00677    0.00153
194 C    -0.00943   -0.00943    0.01896
195 C     0.00677    0.00257    0.00153
196 C    -0.00139   -0.00121    0.01128
197 C    -0.01055   -0.01055    0.02439
198 C    -0.00121   -0.00139    0.01128
199 C     0.02175    0.02175    0.01171
200 C     0.00997    0.00997    0.03516
201 C    -0.31004   -0.10197    0.08911
202 C    -0.00514   -0.00514    0.00889
203 C    -0.10197   -0.31004    0.08911
204 C     0.06591   -0.01629   -0.02375
205 C    -0.02299   -0.02299    0.00769
206 C    -0.01629    0.06591   -0.02375
207 C    -0.00373   -0.00373   -0.01275
208 C    -0.41218   -0.01509   -0.01509
209 C    -0.01509   -0.01509   -0.41218
210 C    -0.01509   -0.41218   -0.01509
211 C    -0.02638    0.21922   -0.02637
212 N    -0.52824   -0.52824   -0.52824
213 C     0.21922   -0.02638   -0.02638
214 C    -0.02638   -0.02638    0.21922

System changes: positions 

Initializing position-dependent things.

Density initialized from wave functions
        .--------C----------------.  
       /|           C             |  
      / | C       C  C C   C      |  
     / C|    C  C    C  C     C   |  
    /  C|C    C C C    C CCC   C  |  
   /    C CCC    C C      N CC    |  
  /  C C| C CCCC  C C C    C CC   |  
 *    C C   CCCCC    C C C    C C |  
 |C    CCC C  CCCCC C  CCCCC   C C|  
 | C C  CCC C    CCC C C  CCC     C  
 |  C C | CCCC C  CCCCC C  CC C   |  
 C   CC C C C C C    CCC C   CC   |  
 |    CCCC C C CCCCC C CCCC C  C  |  
 |     C.CC-C-C-C-CC-C-C-C-C-C----.  
 |  C C/C CCCC   C C CC C C CCC  /   
 |   CC     C CC    C C      C  /    
 |   /C C      CCCC    C C     /     
 |  /    C C      CC       CC /      
 | /C       C        C C     /       
 |/                     C   /        
 C----------------C--------*         

Positions:
   0 C      0.002230    0.002230    0.002230    ( 0.0000,  0.0000,  0.0000)
   1 C     -0.000257    1.774257    1.774257    ( 0.0000,  0.0000,  0.0000)
   2 C      1.774257    1.774257   -0.000257    ( 0.0000,  0.0000,  0.0000)
   3 C      1.774257   -0.000257    1.774257    ( 0.0000,  0.0000,  0.0000)
   4 C      2.660332    0.886101    2.660332    ( 0.0000,  0.0000,  0.0000)
   5 C      0.888049    0.888049    0.888049    ( 0.0000,  0.0000,  0.0000)
   6 C      0.886101    2.660332    2.660332    ( 0.0000,  0.0000,  0.0000)
   7 C      2.660332    2.660332    0.886101    ( 0.0000,  0.0000,  0.0000)
   8 C     -0.001712   -0.001712    3.550244    ( 0.0000,  0.0000,  0.0000)
   9 C     -0.001440    1.772020    5.320418    ( 0.0000,  0.0000,  0.0000)
  10 C      1.772607    1.772607    3.546890    ( 0.0000,  0.0000,  0.0000)
  11 C      1.772020   -0.001440    5.320418    ( 0.0000,  0.0000,  0.0000)
  12 C      2.658485    0.886605    6.207317    ( 0.0000,  0.0000,  0.0000)
  13 C      0.885500    0.885500    4.434515    ( 0.0000,  0.0000,  0.0000)
  14 C      0.886605    2.658485    6.207317    ( 0.0000,  0.0000,  0.0000)
  15 C      2.659426    2.659426    4.433051    ( 0.0000,  0.0000,  0.0000)
  16 C      0.005064    0.005064    7.094956    ( 0.0000,  0.0000,  0.0000)
  17 C      0.000819    1.776660    8.866722    ( 0.0000,  0.0000,  0.0000)
  18 C      1.772929    1.772929    7.092468    ( 0.0000,  0.0000,  0.0000)
  19 C      1.776660    0.000819    8.866722    ( 0.0000,  0.0000,  0.0000)
  20 C      2.662762    0.886271    9.752459    ( 0.0000,  0.0000,  0.0000)
  21 C      0.889673    0.889673    7.981150    ( 0.0000,  0.0000,  0.0000)
  22 C      0.886271    2.662762    9.752459    ( 0.0000,  0.0000,  0.0000)
  23 C      2.657378    2.657378    7.978426    ( 0.0000,  0.0000,  0.0000)
  24 C     -0.001712    3.550244   -0.001712    ( 0.0000,  0.0000,  0.0000)
  25 C     -0.001440    5.320418    1.772020    ( 0.0000,  0.0000,  0.0000)
  26 C      1.772020    5.320418   -0.001440    ( 0.0000,  0.0000,  0.0000)
  27 C      1.772607    3.546890    1.772607    ( 0.0000,  0.0000,  0.0000)
  28 C      2.659426    4.433051    2.659426    ( 0.0000,  0.0000,  0.0000)
  29 C      0.885500    4.434515    0.885500    ( 0.0000,  0.0000,  0.0000)
  30 C      0.886605    6.207317    2.658485    ( 0.0000,  0.0000,  0.0000)
  31 C      2.658485    6.207317    0.886605    ( 0.0000,  0.0000,  0.0000)
  32 C     -0.001697    3.546689    3.546689    ( 0.0000,  0.0000,  0.0000)
  33 C     -0.003061    5.320050    5.320050    ( 0.0000,  0.0000,  0.0000)
  34 C      1.771610    5.319140    3.545837    ( 0.0000,  0.0000,  0.0000)
  35 C      1.771610    3.545837    5.319140    ( 0.0000,  0.0000,  0.0000)
  36 C      2.657679    4.431993    6.205469    ( 0.0000,  0.0000,  0.0000)
  37 C      0.885084    4.433143    4.433143    ( 0.0000,  0.0000,  0.0000)
  38 C      0.883353    6.206648    6.206648    ( 0.0000,  0.0000,  0.0000)
  39 C      2.657679    6.205469    4.431993    ( 0.0000,  0.0000,  0.0000)
  40 C      0.000460    3.545384    7.091116    ( 0.0000,  0.0000,  0.0000)
  41 C     -0.010778    5.330359    8.863721    ( 0.0000,  0.0000,  0.0000)
  42 C      1.771085    5.321061    7.092442    ( 0.0000,  0.0000,  0.0000)
  43 C      1.770910    3.549004    8.865657    ( 0.0000,  0.0000,  0.0000)
  44 C      2.659023    4.434076    9.751369    ( 0.0000,  0.0000,  0.0000)
  45 C      0.881525    4.437609    7.977672    ( 0.0000,  0.0000,  0.0000)
  46 C      0.885274    6.208946    9.751937    ( 0.0000,  0.0000,  0.0000)
  47 C      2.660064    6.206274    7.977910    ( 0.0000,  0.0000,  0.0000)
  48 C      0.005064    7.094956    0.005064    ( 0.0000,  0.0000,  0.0000)
  49 C      0.000819    8.866722    1.776660    ( 0.0000,  0.0000,  0.0000)
  50 C      1.776660    8.866722    0.000819    ( 0.0000,  0.0000,  0.0000)
  51 C      1.772929    7.092468    1.772929    ( 0.0000,  0.0000,  0.0000)
  52 C      2.657378    7.978426    2.657378    ( 0.0000,  0.0000,  0.0000)
  53 C      0.889673    7.981150    0.889673    ( 0.0000,  0.0000,  0.0000)
  54 C      0.886271    9.752459    2.662762    ( 0.0000,  0.0000,  0.0000)
  55 C      2.662762    9.752459    0.886271    ( 0.0000,  0.0000,  0.0000)
  56 C      0.000460    7.091116    3.545384    ( 0.0000,  0.0000,  0.0000)
  57 C     -0.010778    8.863721    5.330359    ( 0.0000,  0.0000,  0.0000)
  58 C      1.770910    8.865657    3.549004    ( 0.0000,  0.0000,  0.0000)
  59 C      1.771085    7.092442    5.321061    ( 0.0000,  0.0000,  0.0000)
  60 C      2.660064    7.977910    6.206274    ( 0.0000,  0.0000,  0.0000)
  61 C      0.881525    7.977672    4.437609    ( 0.0000,  0.0000,  0.0000)
  62 C      0.885274    9.751937    6.208946    ( 0.0000,  0.0000,  0.0000)
  63 C      2.659023    9.751369    4.434076    ( 0.0000,  0.0000,  0.0000)
  64 C     -0.005455    7.094103    7.094103    ( 0.0000,  0.0000,  0.0000)
  65 C      0.008153    8.871135    8.871135    ( 0.0000,  0.0000,  0.0000)
  66 C      1.773995    8.865280    7.093378    ( 0.0000,  0.0000,  0.0000)
  67 C      1.773995    7.093378    8.865280    ( 0.0000,  0.0000,  0.0000)
  68 C      2.662339    7.979317    9.751710    ( 0.0000,  0.0000,  0.0000)
  69 C      0.887518    7.980444    7.980444    ( 0.0000,  0.0000,  0.0000)
  70 C      0.891943    9.755805    9.755805    ( 0.0000,  0.0000,  0.0000)
  71 C      2.662339    9.751710    7.979317    ( 0.0000,  0.0000,  0.0000)
  72 C      3.550244   -0.001712   -0.001712    ( 0.0000,  0.0000,  0.0000)
  73 C      3.546890    1.772607    1.772607    ( 0.0000,  0.0000,  0.0000)
  74 C      5.320418    1.772020   -0.001440    ( 0.0000,  0.0000,  0.0000)
  75 C      5.320418   -0.001440    1.772020    ( 0.0000,  0.0000,  0.0000)
  76 C      6.207317    0.886605    2.658485    ( 0.0000,  0.0000,  0.0000)
  77 C      4.434515    0.885500    0.885500    ( 0.0000,  0.0000,  0.0000)
  78 C      4.433051    2.659426    2.659426    ( 0.0000,  0.0000,  0.0000)
  79 C      6.207317    2.658485    0.886605    ( 0.0000,  0.0000,  0.0000)
  80 C      3.546689   -0.001697    3.546689    ( 0.0000,  0.0000,  0.0000)
  81 C      3.545837    1.771610    5.319140    ( 0.0000,  0.0000,  0.0000)
  82 C      5.319140    1.771610    3.545837    ( 0.0000,  0.0000,  0.0000)
  83 C      5.320050   -0.003061    5.320050    ( 0.0000,  0.0000,  0.0000)
  84 C      6.206648    0.883353    6.206648    ( 0.0000,  0.0000,  0.0000)
  85 C      4.433143    0.885084    4.433143    ( 0.0000,  0.0000,  0.0000)
  86 C      4.431993    2.657679    6.205469    ( 0.0000,  0.0000,  0.0000)
  87 C      6.205469    2.657679    4.431993    ( 0.0000,  0.0000,  0.0000)
  88 C      3.545384    0.000460    7.091116    ( 0.0000,  0.0000,  0.0000)
  89 C      3.549004    1.770910    8.865657    ( 0.0000,  0.0000,  0.0000)
  90 C      5.321061    1.771085    7.092442    ( 0.0000,  0.0000,  0.0000)
  91 C      5.330359   -0.010778    8.863721    ( 0.0000,  0.0000,  0.0000)
  92 C      6.208946    0.885274    9.751937    ( 0.0000,  0.0000,  0.0000)
  93 C      4.437609    0.881525    7.977672    ( 0.0000,  0.0000,  0.0000)
  94 C      4.434076    2.659023    9.751369    ( 0.0000,  0.0000,  0.0000)
  95 C      6.206274    2.660064    7.977910    ( 0.0000,  0.0000,  0.0000)
  96 C      3.546689    3.546689   -0.001697    ( 0.0000,  0.0000,  0.0000)
  97 C      3.545837    5.319140    1.771610    ( 0.0000,  0.0000,  0.0000)
  98 C      5.320050    5.320050   -0.003061    ( 0.0000,  0.0000,  0.0000)
  99 C      5.319140    3.545837    1.771610    ( 0.0000,  0.0000,  0.0000)
 100 C      6.205469    4.431993    2.657679    ( 0.0000,  0.0000,  0.0000)
 101 C      4.433143    4.433143    0.885084    ( 0.0000,  0.0000,  0.0000)
 102 C      4.431993    6.205469    2.657679    ( 0.0000,  0.0000,  0.0000)
 103 C      6.206648    6.206648    0.883353    ( 0.0000,  0.0000,  0.0000)
 104 C      3.546094    3.546094    3.546094    ( 0.0000,  0.0000,  0.0000)
 105 C      3.545995    5.320270    5.320270    ( 0.0000,  0.0000,  0.0000)
 106 C      5.320270    5.320270    3.545995    ( 0.0000,  0.0000,  0.0000)
 107 C      5.320270    3.545995    5.320270    ( 0.0000,  0.0000,  0.0000)
 108 C      6.205084    4.434132    6.205084    ( 0.0000,  0.0000,  0.0000)
 109 C      4.432880    4.432880    4.432880    ( 0.0000,  0.0000,  0.0000)
 110 C      4.434132    6.205084    6.205084    ( 0.0000,  0.0000,  0.0000)
 111 C      6.205084    6.205084    4.434132    ( 0.0000,  0.0000,  0.0000)
 112 C      3.540790    3.540790    7.092087    ( 0.0000,  0.0000,  0.0000)
 113 C      3.546284    5.319225    8.863718    ( 0.0000,  0.0000,  0.0000)
 114 C      5.323345    5.323345    7.090991    ( 0.0000,  0.0000,  0.0000)
 115 C      5.319225    3.546284    8.863718    ( 0.0000,  0.0000,  0.0000)
 116 C      6.210020    4.429540    9.755892    ( 0.0000,  0.0000,  0.0000)
 117 C      4.423623    4.423623    7.975310    ( 0.0000,  0.0000,  0.0000)
 118 C      4.429540    6.210020    9.755892    ( 0.0000,  0.0000,  0.0000)
 119 C      6.140400    6.140400    8.038279    ( 0.0000,  0.0000,  0.0000)
 120 C      3.545384    7.091116    0.000460    ( 0.0000,  0.0000,  0.0000)
 121 C      3.549004    8.865657    1.770910    ( 0.0000,  0.0000,  0.0000)
 122 C      5.330359    8.863721   -0.010778    ( 0.0000,  0.0000,  0.0000)
 123 C      5.321061    7.092442    1.771085    ( 0.0000,  0.0000,  0.0000)
 124 C      6.206274    7.977910    2.660064    ( 0.0000,  0.0000,  0.0000)
 125 C      4.437609    7.977672    0.881525    ( 0.0000,  0.0000,  0.0000)
 126 C      4.434076    9.751369    2.659023    ( 0.0000,  0.0000,  0.0000)
 127 C      6.208946    9.751937    0.885274    ( 0.0000,  0.0000,  0.0000)
 128 C      3.540790    7.092087    3.540790    ( 0.0000,  0.0000,  0.0000)
 129 C      3.546284    8.863718    5.319225    ( 0.0000,  0.0000,  0.0000)
 130 C      5.319225    8.863718    3.546284    ( 0.0000,  0.0000,  0.0000)
 131 C      5.323345    7.090991    5.323345    ( 0.0000,  0.0000,  0.0000)
 132 C      6.140400    8.038279    6.140400    ( 0.0000,  0.0000,  0.0000)
 133 C      4.423623    7.975310    4.423623    ( 0.0000,  0.0000,  0.0000)
 134 C      4.429540    9.755892    6.210020    ( 0.0000,  0.0000,  0.0000)
 135 C      6.210020    9.755892    4.429540    ( 0.0000,  0.0000,  0.0000)
 136 C      3.550532    7.090997    7.090997    ( 0.0000,  0.0000,  0.0000)
 137 C      3.552242    8.861804    8.861804    ( 0.0000,  0.0000,  0.0000)
 138 C      5.333939    8.845574    7.078793    ( 0.0000,  0.0000,  0.0000)
 139 C      5.333939    7.078793    8.845574    ( 0.0000,  0.0000,  0.0000)
 140 C      6.223084    7.971408    9.735561    ( 0.0000,  0.0000,  0.0000)
 141 C      4.440979    7.974042    7.974042    ( 0.0000,  0.0000,  0.0000)
 142 C      4.438531    9.748670    9.748670    ( 0.0000,  0.0000,  0.0000)
 143 C      6.223084    9.735561    7.971408    ( 0.0000,  0.0000,  0.0000)
 144 C      7.094956    0.005064    0.005064    ( 0.0000,  0.0000,  0.0000)
 145 C      7.092468    1.772929    1.772929    ( 0.0000,  0.0000,  0.0000)
 146 C      8.866722    1.776660    0.000819    ( 0.0000,  0.0000,  0.0000)
 147 C      8.866722    0.000819    1.776660    ( 0.0000,  0.0000,  0.0000)
 148 C      9.752459    0.886271    2.662762    ( 0.0000,  0.0000,  0.0000)
 149 C      7.981150    0.889673    0.889673    ( 0.0000,  0.0000,  0.0000)
 150 C      7.978426    2.657378    2.657378    ( 0.0000,  0.0000,  0.0000)
 151 C      9.752459    2.662762    0.886271    ( 0.0000,  0.0000,  0.0000)
 152 C      7.091116    0.000460    3.545384    ( 0.0000,  0.0000,  0.0000)
 153 C      7.092442    1.771085    5.321061    ( 0.0000,  0.0000,  0.0000)
 154 C      8.865657    1.770910    3.549004    ( 0.0000,  0.0000,  0.0000)
 155 C      8.863721   -0.010778    5.330359    ( 0.0000,  0.0000,  0.0000)
[...]
  368      7.22036    1.00000      7.24075    1.00000
  369      7.22174    1.00000      7.24176    1.00000
  370      7.23464    1.00000      7.24193    1.00000
  371      7.24859    1.00000      7.25898    1.00000
  372      7.24859    1.00000      7.25898    1.00000
  373      7.25574    1.00000      7.27514    1.00000
  374      7.25574    1.00000      7.27514    1.00000
  375      7.27872    1.00000      7.28329    1.00000
  376      7.35605    1.00000      7.39908    1.00000
  377      7.35605    1.00000      7.39908    1.00000
  378      7.37985    1.00000      7.42078    1.00000
  379      7.95259    1.00000      8.10660    1.00000
  380      8.23886    1.00000      8.33929    1.00000
  381      8.23886    1.00000      8.33929    1.00000
  382      8.56001    1.00000      8.72663    1.00000
  383      8.70101    1.00000      8.72663    1.00000
  384      8.70101    1.00000      8.78233    1.00000
  385      8.78053    1.00000      8.78575    1.00000
  386      8.78206    1.00000      8.78758    1.00000
  387      8.78206    1.00000      8.78758    1.00000
  388      8.80433    1.00000      8.80789    1.00000
  389      8.80877    1.00000      8.82458    1.00000
  390      8.80878    1.00000      8.82458    1.00000
  391      8.80978    1.00000      8.85656    1.00000
  392      8.87356    1.00000      8.87968    1.00000
  393      8.87356    1.00000      8.87968    1.00000
  394      8.89144    1.00000      8.90196    1.00000
  395      8.96288    1.00000      8.96955    1.00000
  396      8.96288    1.00000      8.96955    1.00000
  397      9.02925    1.00000      9.04097    1.00000
  398      9.03282    1.00000      9.04097    1.00000
  399      9.03282    1.00000      9.04335    1.00000
  400      9.03575    1.00000      9.04534    1.00000
  401      9.03575    1.00000      9.04534    1.00000
  402      9.03849    1.00000      9.05164    1.00000
  403      9.03849    1.00000      9.05249    1.00000
  404      9.04588    1.00000      9.05249    1.00000
  405      9.08229    1.00000      9.09747    1.00000
  406      9.08229    1.00000      9.09747    1.00000
  407      9.09635    1.00000      9.11661    1.00000
  408      9.10049    1.00000      9.11661    1.00000
  409      9.10049    1.00000      9.12041    1.00000
  410      9.10654    1.00000      9.12625    1.00000
  411      9.14854    1.00000      9.16354    1.00000
  412      9.14854    1.00000      9.16354    1.00000
  413      9.61115    1.00000      9.76845    1.00000
  414      9.78993    1.00000      9.83086    1.00000
  415      9.78993    1.00000      9.83086    1.00000
  416      9.90953    1.00000     10.04213    1.00000
  417     10.03081    1.00000     10.04213    1.00000
  418     10.03081    1.00000     10.05200    1.00000
  419     10.04895    1.00000     10.08068    1.00000
  420     10.07608    1.00000     10.08750    1.00000
  421     10.07829    1.00000     10.08750    1.00000
  422     10.07829    1.00000     10.10500    1.00000
  423     10.09207    1.00000     10.18328    1.00000
  424     10.15758    1.00000     10.18328    1.00000
  425     10.15758    1.00000     10.36879    1.00000
  426     11.31072    1.00000     11.48149    1.00000
  427     11.42598    1.00000     11.48149    1.00000
  428     11.42598    1.00000     11.52486    1.00000
  429     12.13426    1.00000     14.06455    0.00000
  430     13.51306    1.00000     15.60774    0.50000
  431     13.51306    1.00000     15.60774    0.50000
  432     17.05004    0.00000     17.05388    0.00000
  433     17.05004    0.00000     17.05388    0.00000
  434     17.06185    0.00000     17.07964    0.00000
  435     17.11385    0.00000     17.12759    0.00000
  436     17.11385    0.00000     17.12759    0.00000
  437     17.12481    0.00000     17.13982    0.00000
  438     17.60729    0.00000     17.61723    0.00000
  439     17.70839    0.00000     17.71447    0.00000
  440     17.70840    0.00000     17.71448    0.00000
  441     17.71194    0.00000     17.71942    0.00000
  442     17.71194    0.00000     17.71942    0.00000
  443     17.79512    0.00000     17.81468    0.00000

Fermi level: inf

Could not find a gap

Forces in eV/Ang:
  0 C    -0.00390   -0.00390   -0.00390
  1 C     0.00084   -0.00325   -0.00325
  2 C    -0.00325   -0.00325    0.00084
  3 C    -0.00325    0.00084   -0.00325
  4 C    -0.00011    0.00230   -0.00011
  5 C    -0.00456   -0.00456   -0.00456
  6 C     0.00230   -0.00011   -0.00011
  7 C    -0.00011   -0.00011    0.00230
  8 C    -0.00092   -0.00092   -0.00305
  9 C    -0.00088    0.00229   -0.00221
 10 C     0.00233    0.00233    0.00097
 11 C     0.00229   -0.00088   -0.00221
 12 C     0.00015   -0.00061    0.00093
 13 C     0.00119    0.00119   -0.00265
 14 C    -0.00061    0.00015    0.00093
 15 C     0.00105    0.00105    0.00396
 16 C     0.00061    0.00061   -0.00367
 17 C    -0.00293    0.00231   -0.00286
 18 C     0.00285    0.00285   -0.00079
 19 C     0.00231   -0.00293   -0.00286
 20 C    -0.00157   -0.00064    0.00026
 21 C     0.00168    0.00168   -0.00330
 22 C    -0.00064   -0.00157    0.00026
 23 C     0.00286    0.00286    0.00084
 24 C    -0.00092   -0.00305   -0.00092
 25 C    -0.00088   -0.00221    0.00229
 26 C     0.00229   -0.00221   -0.00088
 27 C     0.00233    0.00097    0.00233
 28 C     0.00105    0.00396    0.00105
 29 C     0.00119   -0.00265    0.00119
 30 C    -0.00061    0.00093    0.00015
 31 C     0.00015    0.00093   -0.00061
 32 C    -0.00093    0.00087    0.00087
 33 C    -0.00070    0.00247    0.00247
 34 C    -0.00106    0.00357    0.00310
 35 C    -0.00106    0.00310    0.00357
 36 C     0.00051    0.00341    0.00336
 37 C    -0.00195    0.00286    0.00286
 38 C    -0.00255    0.00261    0.00261
 39 C     0.00051    0.00336    0.00341
 40 C    -0.00047   -0.00292    0.00165
 41 C    -0.00159   -0.00172    0.00304
 42 C    -0.00260    0.00028    0.00256
 43 C     0.00127   -0.00020    0.00129
 44 C     0.00342    0.00043   -0.00225
 45 C    -0.00204   -0.00214    0.00302
 46 C     0.00038   -0.00427    0.00094
 47 C     0.00004   -0.00116   -0.00189
 48 C     0.00061   -0.00367    0.00061
 49 C    -0.00293   -0.00286    0.00231
 50 C     0.00231   -0.00286   -0.00293
 51 C     0.00285   -0.00079    0.00285
 52 C     0.00286    0.00084    0.00286
 53 C     0.00168   -0.00330    0.00168
 54 C    -0.00064    0.00026   -0.00157
 55 C    -0.00157    0.00026   -0.00064
 56 C    -0.00047    0.00165   -0.00292
 57 C    -0.00159    0.00304   -0.00172
 58 C     0.00127    0.00129   -0.00020
 59 C    -0.00260    0.00256    0.00028
 60 C     0.00004   -0.00189   -0.00116
 61 C    -0.00204    0.00302   -0.00214
 62 C     0.00038    0.00094   -0.00427
 63 C     0.00342   -0.00225    0.00043
 64 C    -0.00176    0.00160    0.00160
 65 C    -0.00040   -0.00132   -0.00132
 66 C    -0.00067   -0.00222   -0.00309
 67 C    -0.00067   -0.00309   -0.00222
 68 C     0.00079   -0.00341   -0.00546
 69 C    -0.00148   -0.00101   -0.00101
 70 C     0.00054   -0.00337   -0.00337
 71 C     0.00079   -0.00546   -0.00341
 72 C    -0.00305   -0.00092   -0.00092
 73 C     0.00097    0.00233    0.00233
 74 C    -0.00221    0.00229   -0.00088
 75 C    -0.00221   -0.00088    0.00229
 76 C     0.00093   -0.00061    0.00015
 77 C    -0.00265    0.00119    0.00119
 78 C     0.00396    0.00105    0.00105
 79 C     0.00093    0.00015   -0.00061
 80 C     0.00087   -0.00093    0.00087
 81 C     0.00310   -0.00106    0.00357
 82 C     0.00357   -0.00106    0.00310
 83 C     0.00247   -0.00070    0.00247
 84 C     0.00261   -0.00255    0.00261
 85 C     0.00286   -0.00195    0.00286
 86 C     0.00341    0.00051    0.00336
 87 C     0.00336    0.00051    0.00341
 88 C    -0.00292   -0.00047    0.00165
 89 C    -0.00020    0.00127    0.00129
 90 C     0.00028   -0.00260    0.00256
 91 C    -0.00172   -0.00159    0.00304
 92 C    -0.00427    0.00038    0.00094
 93 C    -0.00214   -0.00204    0.00302
 94 C     0.00043    0.00342   -0.00225
 95 C    -0.00116    0.00004   -0.00189
 96 C     0.00087    0.00087   -0.00093
 97 C     0.00310    0.00357   -0.00106
 98 C     0.00247    0.00247   -0.00070
 99 C     0.00357    0.00310   -0.00106
100 C     0.00336    0.00341    0.00051
101 C     0.00286    0.00286   -0.00195
102 C     0.00341    0.00336    0.00051
103 C     0.00261    0.00261   -0.00255
104 C     0.00078    0.00078    0.00078
105 C     0.00346    0.00272    0.00272
106 C     0.00272    0.00272    0.00346
107 C     0.00272    0.00346    0.00272
108 C     0.00089    0.00445    0.00089
109 C     0.00020    0.00020    0.00020
110 C     0.00445    0.00089    0.00089
111 C     0.00089    0.00089    0.00445
112 C     0.00200    0.00200    0.00240
113 C     0.00215    0.00179   -0.00158
114 C    -0.00490   -0.00490    0.00642
115 C     0.00179    0.00215   -0.00158
116 C     0.00302   -0.00097    0.00193
117 C    -0.00004   -0.00004   -0.00048
118 C    -0.00097    0.00302    0.00193
119 C    -0.00083   -0.00083   -0.00426
120 C    -0.00292    0.00165   -0.00047
121 C    -0.00020    0.00129    0.00127
122 C    -0.00172    0.00304   -0.00159
123 C     0.00028    0.00256   -0.00260
124 C    -0.00116   -0.00189    0.00004
125 C    -0.00214    0.00302   -0.00204
126 C     0.00043   -0.00225    0.00342
127 C    -0.00427    0.00094    0.00038
128 C     0.00200    0.00240    0.00200
129 C     0.00215   -0.00158    0.00179
130 C     0.00179   -0.00158    0.00215
131 C    -0.00490    0.00642   -0.00490
132 C    -0.00083   -0.00426   -0.00083
133 C    -0.00004   -0.00048   -0.00004
134 C    -0.00097    0.00193    0.00302
135 C     0.00302    0.00193   -0.00097
136 C     0.00130   -0.00261   -0.00261
137 C    -0.00008   -0.00648   -0.00648
138 C    -0.00317    0.00505    0.00488
139 C    -0.00317    0.00488    0.00505
140 C     0.00219    0.00352   -0.00061
141 C    -0.00168   -0.00021   -0.00021
142 C    -0.00339   -0.00323   -0.00323
143 C     0.00219   -0.00061    0.00352
144 C    -0.00367    0.00061    0.00061
145 C    -0.00079    0.00285    0.00285
146 C    -0.00286    0.00231   -0.00293
147 C    -0.00286   -0.00293    0.00231
148 C     0.00026   -0.00064   -0.00157
149 C    -0.00330    0.00168    0.00168
150 C     0.00084    0.00286    0.00286
151 C     0.00026   -0.00157   -0.00064
152 C     0.00165   -0.00047   -0.00292
153 C     0.00256   -0.00260    0.00028
154 C     0.00129    0.00127   -0.00020
155 C     0.00304   -0.00159   -0.00172
156 C     0.00094    0.00038   -0.00427
157 C     0.00302   -0.00204   -0.00214
158 C    -0.00189    0.00004   -0.00116
159 C    -0.00225    0.00342    0.00043
160 C     0.00160   -0.00176    0.00160
161 C    -0.00309   -0.00067   -0.00222
162 C    -0.00222   -0.00067   -0.00309
163 C    -0.00132   -0.00040   -0.00132
164 C    -0.00337    0.00054   -0.00337
165 C    -0.00101   -0.00148   -0.00101
166 C    -0.00341    0.00079   -0.00546
167 C    -0.00546    0.00079   -0.00341
168 C     0.00165   -0.00292   -0.00047
169 C     0.00256    0.00028   -0.00260
170 C     0.00304   -0.00172   -0.00159
171 C     0.00129   -0.00020    0.00127
172 C    -0.00225    0.00043    0.00342
173 C     0.00302   -0.00214   -0.00204
174 C    -0.00189   -0.00116    0.00004
175 C     0.00094   -0.00427    0.00038
176 C     0.00240    0.00200    0.00200
177 C     0.00642   -0.00490   -0.00490
178 C    -0.00158    0.00179    0.00215
179 C    -0.00158    0.00215    0.00179
180 C     0.00193   -0.00097    0.00302
181 C    -0.00048   -0.00004   -0.00004
182 C    -0.00426   -0.00083   -0.00083
183 C     0.00193    0.00302   -0.00097
184 C    -0.00261    0.00130   -0.00261
185 C     0.00488   -0.00317    0.00505
186 C     0.00505   -0.00317    0.00488
187 C    -0.00648   -0.00008   -0.00648
188 C    -0.00323   -0.00339   -0.00323
189 C    -0.00021   -0.00168   -0.00021
190 C     0.00352    0.00219   -0.00061
191 C    -0.00061    0.00219    0.00352
192 C     0.00160    0.00160   -0.00176
193 C    -0.00309   -0.00222   -0.00067
194 C    -0.00132   -0.00132   -0.00040
195 C    -0.00222   -0.00309   -0.00067
196 C    -0.00546   -0.00341    0.00079
197 C    -0.00101   -0.00101   -0.00148
198 C    -0.00341   -0.00546    0.00079
199 C    -0.00337   -0.00337    0.00054
200 C    -0.00261   -0.00261    0.00130
201 C     0.00488    0.00505   -0.00317
202 C    -0.00648   -0.00648   -0.00008
203 C     0.00505    0.00488   -0.00317
204 C    -0.00061    0.00352    0.00219
205 C    -0.00021   -0.00021   -0.00168
206 C     0.00352   -0.00061    0.00219
207 C    -0.00323   -0.00323   -0.00339
208 C     0.00624   -0.00239   -0.00239
209 C    -0.00239   -0.00239    0.00624
210 C    -0.00239    0.00624   -0.00239
211 C    -0.00113   -0.00222   -0.00113
212 N     0.00271    0.00271    0.00271
213 C    -0.00222   -0.00113   -0.00113
214 C    -0.00113   -0.00113   -0.00222

Writing to nv-triplet-excited-relaxed.gpw (mode='all')

Timing:                                      incl.     excl.
-------------------------------------------------------------------
Density initialized from wave functions:     9.746     9.746   0.0% |
 Symmetrize density:                         0.000     0.000   0.0% |
Forces:                                  53619.726 53619.726  16.9% |------|
Hamiltonian:                                25.477     0.076   0.0% |
 Atomic:                                    12.443     0.119   0.0% |
  XC Correction:                            12.324    12.324   0.0% |
 Calculate atomic Hamiltonians:              5.372     5.372   0.0% |
 Communicate:                                2.307     2.307   0.0% |
 Poisson:                                    0.011     0.011   0.0% |
 XC 3D grid:                                 5.267     5.267   0.0% |
PWDescriptor:                                0.258     0.258   0.0% |
Redistribute:                                0.022     0.022   0.0% |
SCF-cycle:                               264477.316    49.071   0.0% |
 Apply H:                                 8180.617  8180.564   2.6% ||
  HMM T:                                     0.053     0.053   0.0% |
 Density:                                    9.902     0.000   0.0% |
  Atomic density matrices:                   0.221     0.221   0.0% |
  Mix:                                       7.698     7.698   0.0% |
  Multipole moments:                         0.005     0.005   0.0% |
  Pseudo density:                            1.978     1.978   0.0% |
   Symmetrize density:                       0.000     0.000   0.0% |
 Direct Minimisation step:               256198.495   141.639   0.0% |
  Apply H:                                2627.716  2627.700   0.8% |
   HMM T:                                    0.016     0.016   0.0% |
  Density:                                   3.709     0.000   0.0% |
   Atomic density matrices:                  0.085     0.085   0.0% |
   Mix:                                      2.972     2.972   0.0% |
   Multipole moments:                        0.007     0.007   0.0% |
   Pseudo density:                           0.645     0.645   0.0% |
    Symmetrize density:                      0.000     0.000   0.0% |
  Get Search Direction:                     98.608    98.608   0.0% |
  Gradient unoccupied orbitals:           1580.927     3.976   0.0% |
   Apply H:                               1576.284  1576.275   0.5% |
    HMM T:                                   0.009     0.009   0.0% |
   Orthonormalize:                           0.668     0.000   0.0% |
    calc_s_matrix:                           0.048     0.048   0.0% |
    inverse-cholesky:                        0.060     0.060   0.0% |
    projections:                             0.486     0.486   0.0% |
    rotate_psi_s:                            0.073     0.073   0.0% |
  Hamiltonian:                               8.716     0.033   0.0% |
   Atomic:                                   4.159     0.051   0.0% |
    XC Correction:                           4.108     4.108   0.0% |
   Calculate atomic Hamiltonians:            1.663     1.663   0.0% |
   Communicate:                              0.780     0.780   0.0% |
   New Kinetic Energy:                       0.182     0.182   0.0% |
   Poisson:                                  0.017     0.017   0.0% |
   XC 3D grid:                               1.882     1.882   0.0% |
  Inner loop:                            251637.951   485.648   0.2% |
   Energy and gradients:                 249554.883     1.122   0.0% |
    Unitary gradients:                     223.923   223.923   0.1% |
    e/g grid calculations:               249329.839   291.243   0.1% |
     Apply H:                            249038.595 249036.630  78.3% |------------------------------|
      HMM T:                                 1.966     1.966   0.0% |
   Unitary matrix:                         192.608   192.608   0.1% |
   Update Kohn-Sham energy:               1404.812   193.496   0.1% |
    Density:                               332.366     0.014   0.0% |
     Atomic density matrices:                7.462     7.462   0.0% |
     Mix:                                  258.502   258.502   0.1% |
     Multipole moments:                      0.160     0.160   0.0% |
     Pseudo density:                        66.228    66.220   0.0% |
      Symmetrize density:                    0.009     0.009   0.0% |
    Hamiltonian:                           878.950     2.669   0.0% |
     Atomic:                               419.098     4.119   0.0% |
      XC Correction:                       414.980   414.980   0.1% |
     Calculate atomic Hamiltonians:        181.621   181.621   0.1% |
     Communicate:                           77.674    77.674   0.0% |
     New Kinetic Energy:                    17.233    17.233   0.0% |
     Poisson:                                0.268     0.268   0.0% |
     XC 3D grid:                           180.387   180.387   0.1% |
  Orthonormalize:                           97.292     0.073   0.0% |
   Orthonormalize:                           0.682     0.001   0.0% |
    calc_s_matrix:                           0.049     0.049   0.0% |
    inverse-cholesky:                        0.055     0.055   0.0% |
    projections:                             0.503     0.503   0.0% |
    rotate_psi_s:                            0.074     0.074   0.0% |
   calc_s_matrix:                            6.865     6.865   0.0% |
   inverse-cholesky:                         8.717     8.717   0.0% |
   projections:                             70.357    70.357   0.0% |
   rotate_psi_s:                            10.598    10.598   0.0% |
  projections:                               1.936     1.936   0.0% |
 Hamiltonian:                               26.252     0.080   0.0% |
  Atomic:                                   12.460     0.131   0.0% |
   XC Correction:                           12.329    12.329   0.0% |
  Calculate atomic Hamiltonians:             5.413     5.413   0.0% |
  Communicate:                               2.304     2.304   0.0% |
  New Kinetic Energy:                        0.513     0.513   0.0% |
  Poisson:                                   0.008     0.008   0.0% |
  XC 3D grid:                                5.473     5.473   0.0% |
 Orthonormalize:                             7.233     0.000   0.0% |
  Orthonormalize:                            7.232     0.005   0.0% |
   calc_s_matrix:                            0.535     0.535   0.0% |
   inverse-cholesky:                         0.618     0.618   0.0% |
   projections:                              5.253     5.253   0.0% |
   rotate_psi_s:                             0.822     0.822   0.0% |
 projections:                                5.747     5.747   0.0% |
Set symmetry:                                0.000     0.000   0.0% |
Other:                                      25.159    25.159   0.0% |
-------------------------------------------------------------------
Total:                                             318157.704 100.0%

Memory usage: 5.35 GiB
Date: Wed Dec 11 13:07:50 2024
