
  ___ ___ ___ _ _ _  
 |   |   |_  | | | | 
 | | | | | . | | | | 
 |__ |  _|___|_____|  24.6.0
 |___|_|             

User:   ac2uoma125@i01r4n19
Date:   Fri Sep 27 14:35:52 2024
Arch:   x86_64
Pid:    2086
CWD:    /work/home/ac2uoma125/gpaw/hse06_nvcenter_215/sin
Python: 3.12.5
gpaw:   /work/home/ac2uoma125/anaconda3/envs/gpaw2460/lib/python3.12/site-packages/gpaw
_gpaw:  /work/home/ac2uoma125/anaconda3/envs/gpaw2460/lib/python3.12/site-packages/
        _gpaw.cpython-312-x86_64-linux-gnu.so
ase:    /work/home/ac2uoma125/anaconda3/envs/gpaw2460/lib/python3.12/site-packages/ase (version 3.23.0)
numpy:  /work/home/ac2uoma125/anaconda3/envs/gpaw2460/lib/python3.12/site-packages/numpy (version 1.26.4)
scipy:  /work/home/ac2uoma125/anaconda3/envs/gpaw2460/lib/python3.12/site-packages/scipy (version 1.14.1)
libxc:  6.2.2
units:  Angstrom and eV
cores: 32
OpenMP: True
OMP_NUM_THREADS: 1

Input parameters:
  charge: -1
  eigensolver: {blocksize: 1,
                converge_unocc: False,
                excited_state: False,
                functional: {'name': 'ks'},
                grad_tol_inner_loop: 0.0005,
                grad_tol_pz_localization: 0.0005,
                linesearch_algo: {'name': 'max-step', 'max_step': 0.25},
                localization_tol: None,
                localizationseed: None,
                localizationtype: None,
                max_step_inner_loop: 0.2,
                maxiter_inner_loop: 100,
                maxiter_pz_localization: 50,
                maxiter_unocc: 333,
                momevery: 10,
                name: etdm-fdpw,
                need_init_orbs: True,
                need_localization: False,
                printinnerloop: False,
                restart_canonical: True,
                restartevery_iloop_notconverged: 3,
                searchdir_algo: {'name': 'l-bfgs', 'memory': 3},
                use_prec: True}
  mixer: {backend: no-mixing}
  mode: {ecut: 600.0,
         name: pw}
  nbands: -12
  occupations: {name: fixed-uniform}
  spinpol: True
  symmetry: off
  xc: HSE06

System changes: positions, numbers, cell, pbc, initial_charges, initial_magmoms 

Initialize ...

species:
  C:
    name: Carbon
    id: 4aa54d4b901d75f77cc0ea3eec22967b
    Z: 6.0
    valence: 4
    core: 2
    charge: 0.0
    file: /work/home/ac2uoma125/anaconda3/envs/gpaw2460/share/gpaw/C.PBE.gz
    compensation charges: {type: gauss,
                           rc: 0.20,
                           lmax: 2}
    cutoffs: {filter: 1.14,
              core: 1.14}
    projectors:
      #              energy  rcut
      - 2s(2.00)   -13.751   0.635
      - 2p(2.00)    -5.284   0.635
      -  s          13.461   0.635
      -  p          21.927   0.635
      -  d           0.000   0.635
  
    # Using partial waves for C as LCAO basis

  N:
    name: Nitrogen
    id: f7500608b86eaa90eef8b1d9a670dc53
    Z: 7.0
    valence: 5
    core: 2
    charge: 0.0
    file: /work/home/ac2uoma125/anaconda3/envs/gpaw2460/share/gpaw/N.PBE.gz
    compensation charges: {type: gauss,
                           rc: 0.18,
                           lmax: 2}
    cutoffs: {filter: 1.11,
              core: 0.96}
    projectors:
      #              energy  rcut
      - 2s(2.00)   -18.583   0.603
      - 2p(3.00)    -7.089   0.529
      -  s           8.629   0.603
      -  p          20.123   0.529
      -  d           0.000   0.577
  
    # Using partial waves for N as LCAO basis

Reference energy: -221394.138216  # eV

Spin-polarized calculation.
Magnetic moment: 0.000000

Convergence criteria:
 Maximum [total energy] change in last 3 cyles: 0.0005 eV / valence electron
 Maximum integral of absolute [dens]ity change: 0.0001 electrons / valence electron
 Maximum integral of absolute [eigenst]ate change: 4e-08 eV^2 / valence electron
 Maximum number of scf [iter]ations: 333
 (Square brackets indicate name in SCF output, whereas a 'c' in
 the SCF output indicates the quantity has converged.)

Symmetries present (total): 1

  ( 1  0  0)
  ( 0  1  0)
  ( 0  0  1)

1 k-point (Gamma)
1 k-point in the irreducible part of the Brillouin zone
       k-points in crystal coordinates                weights
   0:     0.00000000    0.00000000    0.00000000          1/1

Wave functions: Plane wave expansion
  Cutoff energy: 600.000 eV
  Number of coefficients: 40243 (reduced to 20122)
  Pulay-stress correction: 0.000000 eV/Ang^3 (de/decut=0.000000)
  Using FFTW library
  ScaLapack parameters: grid=1x1, blocksize=None
  Wavefunction extrapolation:
    Improved wavefunction reuse through dual PAW basis 

Occupation numbers: # Uniform distribution of occupation numbers 

Eigensolver
   Direct minimisation using exponential transformation.
       Search direction: L-BFGS algorithm
       Line search: step size equals one
       Preconditioning: True
       Orbital-density self-interaction corrections: ks
       WARNING: do not use it for metals as occupation numbers are
                not found variationally
 

Densities:
  Coarse grid: 63*63*63 grid
  Fine grid: 126*126*126 grid
  Total Charge: -1.000000 

Density mixing:
  Method: difference
  Backend: no-mixing
  Linear mixing parameter: 0
  old densities: 0
  Damping of long wavelength oscillations: 0 

Hamiltonian:
  XC and Coulomb potentials evaluated on a 126*126*126 grid
  Using the HSE06 Exchange-Correlation functional
  External potential:
    NoExternalPotential
Poisson solver:
  Uniform background charge: -1.000 electrons
 

XC parameters: HYB_GGA_XC_HSE06 + 0.25 * EXX(omega = 0.11 bohr^-1)

Memory estimate:
  Process memory now: 350.18 MiB
Attribute error: AttributeError("'HybridXC' object has no attribute 'estimate_memory'")
Some object probably lacks estimate_memory() method
Memory breakdown may be incomplete
  Calculator: 5.42 MiB
    Density: 3.82 MiB
      Arrays: 2.16 MiB
      Localized functions: 1.67 MiB
      Mixer: 0.00 MiB
    Hamiltonian: 1.60 MiB
      Arrays: 1.60 MiB

Total number of cores used: 32
Domain decomposition: 4 x 4 x 2

Number of atoms: 215
Number of atomic orbitals: 860
Number of bands in calculation: 443
Number of valence electrons: 862
Bands to converge: occupied

... initialized

Initializing position-dependent things.

Density initialized from atomic densities
Creating initial wave functions:
  443 bands from LCAO basis set

        .--------C----------------.  
       /|           C             |  
      / | C       C  C C   C      |  
     / C|    C  C    C  C     C   |  
    /  C|C    C C C    C CCC   C  |  
   /    C C C    C C      N CC    |  
  /  C C| CCCCCC  C C C    C CC   |  
 *    C C   CCCCC    C C C    C C |  
 |C    CCC C  CCCCC C  CCCCC   C C|  
 | C C  CCC C    CCC C C  CCC     C  
 |  C C | CCCC C  CCCCC C  CC C   |  
 C   CC C C C C C    CCC C   CC   |  
 |    CCCC C C CCCCC C CCCC C  C  |  
 |     C.CC-C-C-C-CC-C-C-C-C-C----.  
 |  C C/C CCCC   C C CC C C CCC  /   
 |   CC     C CC    C C      C  /    
 |   /C C      CCCC    C C     /     
 |  /    C C      C C      CC /      
 | /C       C        C C     /       
 |/                     C   /        
 C----------------C--------*         

Positions:
   0 C      0.002372    0.002372    0.002372    ( 0.0000,  0.0000,  0.0000)
   1 C     -0.000177    1.774292    1.774292    ( 0.0000,  0.0000,  0.0000)
   2 C      1.774292    1.774292   -0.000177    ( 0.0000,  0.0000,  0.0000)
   3 C      1.774292   -0.000177    1.774292    ( 0.0000,  0.0000,  0.0000)
   4 C      2.660291    0.886016    2.660291    ( 0.0000,  0.0000,  0.0000)
   5 C      0.887932    0.887932    0.887932    ( 0.0000,  0.0000,  0.0000)
   6 C      0.886016    2.660291    2.660291    ( 0.0000,  0.0000,  0.0000)
   7 C      2.660291    2.660291    0.886016    ( 0.0000,  0.0000,  0.0000)
   8 C     -0.001720   -0.001720    3.550221    ( 0.0000,  0.0000,  0.0000)
   9 C     -0.001514    1.772014    5.320396    ( 0.0000,  0.0000,  0.0000)
  10 C      1.772639    1.772639    3.546938    ( 0.0000,  0.0000,  0.0000)
  11 C      1.772014   -0.001514    5.320396    ( 0.0000,  0.0000,  0.0000)
  12 C      2.658540    0.886445    6.206956    ( 0.0000,  0.0000,  0.0000)
  13 C      0.885452    0.885452    4.434520    ( 0.0000,  0.0000,  0.0000)
  14 C      0.886445    2.658540    6.206956    ( 0.0000,  0.0000,  0.0000)
  15 C      2.659334    2.659334    4.433008    ( 0.0000,  0.0000,  0.0000)
  16 C      0.005597    0.005597    7.096195    ( 0.0000,  0.0000,  0.0000)
  17 C      0.000909    1.776657    8.866874    ( 0.0000,  0.0000,  0.0000)
  18 C      1.773012    1.773012    7.093113    ( 0.0000,  0.0000,  0.0000)
  19 C      1.776657    0.000909    8.866874    ( 0.0000,  0.0000,  0.0000)
  20 C      2.662759    0.886233    9.752379    ( 0.0000,  0.0000,  0.0000)
  21 C      0.889792    0.889792    7.980502    ( 0.0000,  0.0000,  0.0000)
  22 C      0.886233    2.662759    9.752379    ( 0.0000,  0.0000,  0.0000)
  23 C      2.657417    2.657417    7.978135    ( 0.0000,  0.0000,  0.0000)
  24 C     -0.001720    3.550221   -0.001720    ( 0.0000,  0.0000,  0.0000)
  25 C     -0.001514    5.320396    1.772014    ( 0.0000,  0.0000,  0.0000)
  26 C      1.772014    5.320396   -0.001514    ( 0.0000,  0.0000,  0.0000)
  27 C      1.772639    3.546938    1.772639    ( 0.0000,  0.0000,  0.0000)
  28 C      2.659334    4.433008    2.659334    ( 0.0000,  0.0000,  0.0000)
  29 C      0.885452    4.434520    0.885452    ( 0.0000,  0.0000,  0.0000)
  30 C      0.886445    6.206956    2.658540    ( 0.0000,  0.0000,  0.0000)
  31 C      2.658540    6.206956    0.886445    ( 0.0000,  0.0000,  0.0000)
  32 C     -0.001669    3.546694    3.546694    ( 0.0000,  0.0000,  0.0000)
  33 C     -0.002583    5.319921    5.319921    ( 0.0000,  0.0000,  0.0000)
  34 C      1.771768    5.319199    3.545991    ( 0.0000,  0.0000,  0.0000)
  35 C      1.771768    3.545991    5.319199    ( 0.0000,  0.0000,  0.0000)
  36 C      2.657674    4.432033    6.205470    ( 0.0000,  0.0000,  0.0000)
  37 C      0.884954    4.433087    4.433087    ( 0.0000,  0.0000,  0.0000)
  38 C      0.883451    6.206763    6.206763    ( 0.0000,  0.0000,  0.0000)
  39 C      2.657674    6.205470    4.432033    ( 0.0000,  0.0000,  0.0000)
  40 C      0.000014    3.545859    7.091609    ( 0.0000,  0.0000,  0.0000)
  41 C     -0.010700    5.330071    8.863338    ( 0.0000,  0.0000,  0.0000)
  42 C      1.771117    5.320902    7.092299    ( 0.0000,  0.0000,  0.0000)
  43 C      1.770943    3.548938    8.865634    ( 0.0000,  0.0000,  0.0000)
  44 C      2.658959    4.434080    9.751333    ( 0.0000,  0.0000,  0.0000)
  45 C      0.881582    4.437692    7.977967    ( 0.0000,  0.0000,  0.0000)
  46 C      0.885071    6.209040    9.751980    ( 0.0000,  0.0000,  0.0000)
  47 C      2.660173    6.206484    7.978018    ( 0.0000,  0.0000,  0.0000)
  48 C      0.005597    7.096195    0.005597    ( 0.0000,  0.0000,  0.0000)
  49 C      0.000909    8.866874    1.776657    ( 0.0000,  0.0000,  0.0000)
  50 C      1.776657    8.866874    0.000909    ( 0.0000,  0.0000,  0.0000)
  51 C      1.773012    7.093113    1.773012    ( 0.0000,  0.0000,  0.0000)
  52 C      2.657417    7.978135    2.657417    ( 0.0000,  0.0000,  0.0000)
  53 C      0.889792    7.980502    0.889792    ( 0.0000,  0.0000,  0.0000)
  54 C      0.886233    9.752379    2.662759    ( 0.0000,  0.0000,  0.0000)
  55 C      2.662759    9.752379    0.886233    ( 0.0000,  0.0000,  0.0000)
  56 C      0.000014    7.091609    3.545859    ( 0.0000,  0.0000,  0.0000)
  57 C     -0.010700    8.863338    5.330071    ( 0.0000,  0.0000,  0.0000)
  58 C      1.770943    8.865634    3.548938    ( 0.0000,  0.0000,  0.0000)
  59 C      1.771117    7.092299    5.320902    ( 0.0000,  0.0000,  0.0000)
  60 C      2.660173    7.978018    6.206484    ( 0.0000,  0.0000,  0.0000)
  61 C      0.881582    7.977967    4.437692    ( 0.0000,  0.0000,  0.0000)
  62 C      0.885071    9.751980    6.209040    ( 0.0000,  0.0000,  0.0000)
  63 C      2.658959    9.751333    4.434080    ( 0.0000,  0.0000,  0.0000)
  64 C     -0.005349    7.094062    7.094062    ( 0.0000,  0.0000,  0.0000)
  65 C      0.007882    8.871270    8.871270    ( 0.0000,  0.0000,  0.0000)
  66 C      1.773973    8.865184    7.093341    ( 0.0000,  0.0000,  0.0000)
  67 C      1.773973    7.093341    8.865184    ( 0.0000,  0.0000,  0.0000)
  68 C      2.662178    7.979334    9.751729    ( 0.0000,  0.0000,  0.0000)
  69 C      0.887169    7.980595    7.980595    ( 0.0000,  0.0000,  0.0000)
  70 C      0.891775    9.755494    9.755494    ( 0.0000,  0.0000,  0.0000)
  71 C      2.662178    9.751729    7.979334    ( 0.0000,  0.0000,  0.0000)
  72 C      3.550221   -0.001720   -0.001720    ( 0.0000,  0.0000,  0.0000)
  73 C      3.546938    1.772639    1.772639    ( 0.0000,  0.0000,  0.0000)
  74 C      5.320396    1.772014   -0.001514    ( 0.0000,  0.0000,  0.0000)
  75 C      5.320396   -0.001514    1.772014    ( 0.0000,  0.0000,  0.0000)
  76 C      6.206956    0.886445    2.658540    ( 0.0000,  0.0000,  0.0000)
  77 C      4.434520    0.885452    0.885452    ( 0.0000,  0.0000,  0.0000)
  78 C      4.433008    2.659334    2.659334    ( 0.0000,  0.0000,  0.0000)
  79 C      6.206956    2.658540    0.886445    ( 0.0000,  0.0000,  0.0000)
  80 C      3.546694   -0.001669    3.546694    ( 0.0000,  0.0000,  0.0000)
  81 C      3.545991    1.771768    5.319199    ( 0.0000,  0.0000,  0.0000)
  82 C      5.319199    1.771768    3.545991    ( 0.0000,  0.0000,  0.0000)
  83 C      5.319921   -0.002583    5.319921    ( 0.0000,  0.0000,  0.0000)
  84 C      6.206763    0.883451    6.206763    ( 0.0000,  0.0000,  0.0000)
  85 C      4.433087    0.884954    4.433087    ( 0.0000,  0.0000,  0.0000)
  86 C      4.432033    2.657674    6.205470    ( 0.0000,  0.0000,  0.0000)
  87 C      6.205470    2.657674    4.432033    ( 0.0000,  0.0000,  0.0000)
  88 C      3.545859    0.000014    7.091609    ( 0.0000,  0.0000,  0.0000)
  89 C      3.548938    1.770943    8.865634    ( 0.0000,  0.0000,  0.0000)
  90 C      5.320902    1.771117    7.092299    ( 0.0000,  0.0000,  0.0000)
  91 C      5.330071   -0.010700    8.863338    ( 0.0000,  0.0000,  0.0000)
  92 C      6.209040    0.885071    9.751980    ( 0.0000,  0.0000,  0.0000)
  93 C      4.437692    0.881582    7.977967    ( 0.0000,  0.0000,  0.0000)
  94 C      4.434080    2.658959    9.751333    ( 0.0000,  0.0000,  0.0000)
  95 C      6.206484    2.660173    7.978018    ( 0.0000,  0.0000,  0.0000)
  96 C      3.546694    3.546694   -0.001669    ( 0.0000,  0.0000,  0.0000)
  97 C      3.545991    5.319199    1.771768    ( 0.0000,  0.0000,  0.0000)
  98 C      5.319921    5.319921   -0.002583    ( 0.0000,  0.0000,  0.0000)
  99 C      5.319199    3.545991    1.771768    ( 0.0000,  0.0000,  0.0000)
 100 C      6.205470    4.432033    2.657674    ( 0.0000,  0.0000,  0.0000)
 101 C      4.433087    4.433087    0.884954    ( 0.0000,  0.0000,  0.0000)
 102 C      4.432033    6.205470    2.657674    ( 0.0000,  0.0000,  0.0000)
 103 C      6.206763    6.206763    0.883451    ( 0.0000,  0.0000,  0.0000)
 104 C      3.546165    3.546165    3.546165    ( 0.0000,  0.0000,  0.0000)
 105 C      3.546493    5.320207    5.320207    ( 0.0000,  0.0000,  0.0000)
 106 C      5.320207    5.320207    3.546493    ( 0.0000,  0.0000,  0.0000)
 107 C      5.320207    3.546493    5.320207    ( 0.0000,  0.0000,  0.0000)
 108 C      6.204957    4.435216    6.204957    ( 0.0000,  0.0000,  0.0000)
 109 C      4.432681    4.432681    4.432681    ( 0.0000,  0.0000,  0.0000)
 110 C      4.435216    6.204957    6.204957    ( 0.0000,  0.0000,  0.0000)
 111 C      6.204957    6.204957    4.435216    ( 0.0000,  0.0000,  0.0000)
 112 C      3.540875    3.540875    7.092749    ( 0.0000,  0.0000,  0.0000)
 113 C      3.546107    5.318967    8.863917    ( 0.0000,  0.0000,  0.0000)
 114 C      5.319652    5.319652    7.095926    ( 0.0000,  0.0000,  0.0000)
 115 C      5.318967    3.546107    8.863917    ( 0.0000,  0.0000,  0.0000)
 116 C      6.209079    4.430145    9.754367    ( 0.0000,  0.0000,  0.0000)
 117 C      4.423602    4.423602    7.973369    ( 0.0000,  0.0000,  0.0000)
 118 C      4.430145    6.209079    9.754367    ( 0.0000,  0.0000,  0.0000)
 119 C      6.145582    6.145582    8.012744    ( 0.0000,  0.0000,  0.0000)
 120 C      3.545859    7.091609    0.000014    ( 0.0000,  0.0000,  0.0000)
 121 C      3.548938    8.865634    1.770943    ( 0.0000,  0.0000,  0.0000)
 122 C      5.330071    8.863338   -0.010700    ( 0.0000,  0.0000,  0.0000)
 123 C      5.320902    7.092299    1.771117    ( 0.0000,  0.0000,  0.0000)
 124 C      6.206484    7.978018    2.660173    ( 0.0000,  0.0000,  0.0000)
 125 C      4.437692    7.977967    0.881582    ( 0.0000,  0.0000,  0.0000)
 126 C      4.434080    9.751333    2.658959    ( 0.0000,  0.0000,  0.0000)
 127 C      6.209040    9.751980    0.885071    ( 0.0000,  0.0000,  0.0000)
 128 C      3.540875    7.092749    3.540875    ( 0.0000,  0.0000,  0.0000)
 129 C      3.546107    8.863917    5.318967    ( 0.0000,  0.0000,  0.0000)
 130 C      5.318967    8.863917    3.546107    ( 0.0000,  0.0000,  0.0000)
 131 C      5.319652    7.095926    5.319652    ( 0.0000,  0.0000,  0.0000)
 132 C      6.145582    8.012744    6.145582    ( 0.0000,  0.0000,  0.0000)
 133 C      4.423602    7.973369    4.423602    ( 0.0000,  0.0000,  0.0000)
 134 C      4.430145    9.754367    6.209079    ( 0.0000,  0.0000,  0.0000)
 135 C      6.209079    9.754367    4.430145    ( 0.0000,  0.0000,  0.0000)
 136 C      3.550030    7.090855    7.090855    ( 0.0000,  0.0000,  0.0000)
 137 C      3.552115    8.861877    8.861877    ( 0.0000,  0.0000,  0.0000)
 138 C      5.332666    8.847031    7.083222    ( 0.0000,  0.0000,  0.0000)
 139 C      5.332666    7.083222    8.847031    ( 0.0000,  0.0000,  0.0000)
 140 C      6.223423    7.971641    9.734620    ( 0.0000,  0.0000,  0.0000)
 141 C      4.440870    7.974370    7.974370    ( 0.0000,  0.0000,  0.0000)
 142 C      4.438713    9.748724    9.748724    ( 0.0000,  0.0000,  0.0000)
 143 C      6.223423    9.734620    7.971641    ( 0.0000,  0.0000,  0.0000)
 144 C      7.096195    0.005597    0.005597    ( 0.0000,  0.0000,  0.0000)
 145 C      7.093113    1.773012    1.773012    ( 0.0000,  0.0000,  0.0000)
 146 C      8.866874    1.776657    0.000909    ( 0.0000,  0.0000,  0.0000)
 147 C      8.866874    0.000909    1.776657    ( 0.0000,  0.0000,  0.0000)
 148 C      9.752379    0.886233    2.662759    ( 0.0000,  0.0000,  0.0000)
 149 C      7.980502    0.889792    0.889792    ( 0.0000,  0.0000,  0.0000)
 150 C      7.978135    2.657417    2.657417    ( 0.0000,  0.0000,  0.0000)
 151 C      9.752379    2.662759    0.886233    ( 0.0000,  0.0000,  0.0000)
 152 C      7.091609    0.000014    3.545859    ( 0.0000,  0.0000,  0.0000)
 153 C      7.092299    1.771117    5.320902    ( 0.0000,  0.0000,  0.0000)
 154 C      8.865634    1.770943    3.548938    ( 0.0000,  0.0000,  0.0000)
 155 C      8.863338   -0.010700    5.330071    ( 0.0000,  0.0000,  0.0000)
 156 C      9.751980    0.885071    6.209040    ( 0.0000,  0.0000,  0.0000)
 157 C      7.977967    0.881582    4.437692    ( 0.0000,  0.0000,  0.0000)
 158 C      7.978018    2.660173    6.206484    ( 0.0000,  0.0000,  0.0000)
 159 C      9.751333    2.658959    4.434080    ( 0.0000,  0.0000,  0.0000)
 160 C      7.094062   -0.005349    7.094062    ( 0.0000,  0.0000,  0.0000)
 161 C      7.093341    1.773973    8.865184    ( 0.0000,  0.0000,  0.0000)
 162 C      8.865184    1.773973    7.093341    ( 0.0000,  0.0000,  0.0000)
 163 C      8.871270    0.007882    8.871270    ( 0.0000,  0.0000,  0.0000)
 164 C      9.755494    0.891775    9.755494    ( 0.0000,  0.0000,  0.0000)
 165 C      7.980595    0.887169    7.980595    ( 0.0000,  0.0000,  0.0000)
 166 C      7.979334    2.662178    9.751729    ( 0.0000,  0.0000,  0.0000)
 167 C      9.751729    2.662178    7.979334    ( 0.0000,  0.0000,  0.0000)
 168 C      7.091609    3.545859    0.000014    ( 0.0000,  0.0000,  0.0000)
 169 C      7.092299    5.320902    1.771117    ( 0.0000,  0.0000,  0.0000)
 170 C      8.863338    5.330071   -0.010700    ( 0.0000,  0.0000,  0.0000)
 171 C      8.865634    3.548938    1.770943    ( 0.0000,  0.0000,  0.0000)
 172 C      9.751333    4.434080    2.658959    ( 0.0000,  0.0000,  0.0000)
 173 C      7.977967    4.437692    0.881582    ( 0.0000,  0.0000,  0.0000)
 174 C      7.978018    6.206484    2.660173    ( 0.0000,  0.0000,  0.0000)
 175 C      9.751980    6.209040    0.885071    ( 0.0000,  0.0000,  0.0000)
 176 C      7.092749    3.540875    3.540875    ( 0.0000,  0.0000,  0.0000)
 177 C      7.095926    5.319652    5.319652    ( 0.0000,  0.0000,  0.0000)
 178 C      8.863917    5.318967    3.546107    ( 0.0000,  0.0000,  0.0000)
 179 C      8.863917    3.546107    5.318967    ( 0.0000,  0.0000,  0.0000)
 180 C      9.754367    4.430145    6.209079    ( 0.0000,  0.0000,  0.0000)
 181 C      7.973369    4.423602    4.423602    ( 0.0000,  0.0000,  0.0000)
 182 C      8.012744    6.145582    6.145582    ( 0.0000,  0.0000,  0.0000)
 183 C      9.754367    6.209079    4.430145    ( 0.0000,  0.0000,  0.0000)
 184 C      7.090855    3.550030    7.090855    ( 0.0000,  0.0000,  0.0000)
 185 C      7.083222    5.332666    8.847031    ( 0.0000,  0.0000,  0.0000)
 186 C      8.847031    5.332666    7.083222    ( 0.0000,  0.0000,  0.0000)
 187 C      8.861877    3.552115    8.861877    ( 0.0000,  0.0000,  0.0000)
 188 C      9.748724    4.438713    9.748724    ( 0.0000,  0.0000,  0.0000)
 189 C      7.974370    4.440870    7.974370    ( 0.0000,  0.0000,  0.0000)
 190 C      7.971641    6.223423    9.734620    ( 0.0000,  0.0000,  0.0000)
 191 C      9.734620    6.223423    7.971641    ( 0.0000,  0.0000,  0.0000)
 192 C      7.094062    7.094062   -0.005349    ( 0.0000,  0.0000,  0.0000)
 193 C      7.093341    8.865184    1.773973    ( 0.0000,  0.0000,  0.0000)
 194 C      8.871270    8.871270    0.007882    ( 0.0000,  0.0000,  0.0000)
 195 C      8.865184    7.093341    1.773973    ( 0.0000,  0.0000,  0.0000)
 196 C      9.751729    7.979334    2.662178    ( 0.0000,  0.0000,  0.0000)
 197 C      7.980595    7.980595    0.887169    ( 0.0000,  0.0000,  0.0000)
 198 C      7.979334    9.751729    2.662178    ( 0.0000,  0.0000,  0.0000)
 199 C      9.755494    9.755494    0.891775    ( 0.0000,  0.0000,  0.0000)
 200 C      7.090855    7.090855    3.550030    ( 0.0000,  0.0000,  0.0000)
 201 C      7.083222    8.847031    5.332666    ( 0.0000,  0.0000,  0.0000)
 202 C      8.861877    8.861877    3.552115    ( 0.0000,  0.0000,  0.0000)
 203 C      8.847031    7.083222    5.332666    ( 0.0000,  0.0000,  0.0000)
 204 C      9.734620    7.971641    6.223423    ( 0.0000,  0.0000,  0.0000)
 205 C      7.974370    7.974370    4.440870    ( 0.0000,  0.0000,  0.0000)
 206 C      7.971641    9.734620    6.223423    ( 0.0000,  0.0000,  0.0000)
 207 C      9.748724    9.748724    4.438713    ( 0.0000,  0.0000,  0.0000)
 208 C      7.136597    8.864770    8.864770    ( 0.0000,  0.0000,  0.0000)
 209 C      8.864770    8.864770    7.136597    ( 0.0000,  0.0000,  0.0000)
 210 C      8.864770    7.136597    8.864770    ( 0.0000,  0.0000,  0.0000)
 211 C      9.766565    7.984371    9.766565    ( 0.0000,  0.0000,  0.0000)
 212 N      8.067138    8.067138    8.067138    ( 0.0000,  0.0000,  0.0000)
 213 C      7.984371    9.766565    9.766565    ( 0.0000,  0.0000,  0.0000)
 214 C      9.766565    9.766565    7.984371    ( 0.0000,  0.0000,  0.0000)

Unit cell:
           periodic     x           y           z      points  spacing
  1. axis:    yes   10.639295    0.000000    0.000000    63     0.1689
  2. axis:    yes    0.000000   10.639295    0.000000    63     0.1689
  3. axis:    yes    0.000000    0.000000   10.639295    63     0.1689

  Lengths:  10.639295  10.639295  10.639295
  Angles:   90.000000  90.000000  90.000000

Effective grid spacing dv^(1/3) = 0.1689

     iter     time        total  log10-change:  magmom
                         energy   eigst   dens
iter:   1 14:56:05 -2009.074197   +1.05  -2.05    -0.0000
iter:   2 15:05:58 -2045.896256   +0.92  -2.06    +0.0000
iter:   3 15:15:49 -2078.095041   +0.75  -2.08    +0.0000
iter:   4 15:25:42 -2104.704637   +0.55  -2.09    +0.0000
iter:   5 15:35:34 -2125.182680   +0.27  -2.10    -0.0000
iter:   6 15:45:25 -2139.356780   -0.13  -2.12    -0.0000
iter:   7 15:55:17 -2147.240756   -0.90  -2.13    +0.0000
iter:   8 16:05:09 -2151.489929   -2.47  -2.31    +0.0000
iter:   9 16:15:01 -2156.256804   -2.74  -3.85    -0.0000
iter:  10 16:24:53 -2156.628357   -2.81  -3.24    +0.0000
iter:  11 16:34:45 -2156.335952c  -2.62  -3.56    +0.0000
iter:  12 16:44:37 -2156.213390c  -2.89  -3.99    +0.0000
iter:  13 16:54:29 -2156.199251c  -3.16  -3.86    -0.0000
iter:  14 17:04:21 -2156.166977c  -2.66  -3.51    -0.0000
iter:  15 17:14:12 -2156.216557c  -2.27  -3.42    +0.0000
iter:  16 17:24:04 -2156.186627c  -1.91  -3.23    +0.0000
iter:  17 17:33:55 -2156.237214c  -1.72  -3.26    +0.0000
iter:  18 17:43:46 -2156.513599c  -1.74  -3.28    +0.0000
iter:  19 17:53:38 -2156.623397c  -1.89  -3.26    -0.0000
iter:  20 18:03:30 -2157.178433   -2.19  -3.25    -0.0000
iter:  21 18:13:22 -2157.078069   -2.22  -3.60    -0.0000
iter:  22 18:23:14 -2157.131825c  -2.20  -3.27    +0.0000
iter:  23 18:33:07 -2157.100752c  -2.13  -3.71    -0.0000
iter:  24 18:42:59 -2157.076242c  -2.51  -3.68    -0.0000
iter:  25 18:52:51 -2157.162065c  -2.89  -3.89    +0.0000
iter:  26 19:02:43 -2157.183984c  -2.82  -3.60    -0.0000
iter:  27 19:12:35 -2157.381356c  -3.44  -3.64    +0.0000
iter:  28 19:22:27 -2157.260086c  -3.12  -3.97    +0.0000
iter:  29 19:32:19 -2157.223128c  -3.34  -4.17c   +0.0000
iter:  30 19:42:12 -2157.231672c  -3.97  -3.95    +0.0000
iter:  31 19:52:05 -2157.316879c  -4.30  -4.24c   +0.0000
iter:  32 20:01:57 -2157.283910c  -4.83  -4.46c   +0.0000
iter:  33 20:11:49 -2157.259062c  -4.78  -5.04c   -0.0000
iter:  34 20:21:40 -2157.241045c  -5.06  -4.63c   -0.0000
iter:  35 20:31:33 -2157.257165c  -5.55  -4.87c   -0.0000
iter:  36 20:41:25 -2157.263403c  -5.65  -5.24c   -0.0000
iter:  37 20:51:18 -2157.267759c  -5.76  -5.13c   -0.0000
iter:  38 21:01:10 -2157.266046c  -6.21  -5.28c   +0.0000
iter:  39 21:11:01 -2157.263469c  -6.36  -5.75c   +0.0000
iter:  40 21:20:51 -2157.261721c  -6.47  -5.40c   -0.0000
iter:  41 21:30:41 -2157.262075c  -6.76  -5.76c   -0.0000
iter:  42 21:40:31 -2157.262370c  -6.94  -5.86c   -0.0000
iter:  43 21:50:21 -2157.263051c  -7.10  -5.61c   -0.0000
iter:  44 22:00:11 -2157.262971c  -6.85  -5.84c   +0.0000
iter:  45 22:10:00 -2157.262835c  -7.27  -6.13c   +0.0000
iter:  46 22:19:50 -2157.263014c  -8.00c -6.20c   -0.0000

Occupied states converged after 47 e/g evaluations
Unoccupied states are not converged.

Converged after 46 iterations.

Dipole moment: (0.745806, 0.871628, 0.871681) |e|*Ang

Total magnetic moment: (0.000000, 0.000000, 0.000000)
Local magnetic moments:
   0 C  ( 0.000000,  0.000000,  0.000000)
   1 C  ( 0.000000,  0.000000, -0.000000)
   2 C  ( 0.000000,  0.000000,  0.000015)
   3 C  ( 0.000000,  0.000000, -0.000015)
   4 C  ( 0.000000,  0.000000,  0.000254)
   5 C  ( 0.000000,  0.000000, -0.000000)
   6 C  ( 0.000000,  0.000000,  0.000000)
   7 C  ( 0.000000,  0.000000, -0.000254)
   8 C  ( 0.000000,  0.000000, -0.000106)
   9 C  ( 0.000000,  0.000000, -0.000020)
  10 C  ( 0.000000,  0.000000, -0.000028)
  11 C  ( 0.000000,  0.000000, -0.000055)
  12 C  ( 0.000000,  0.000000,  0.001324)
  13 C  ( 0.000000,  0.000000,  0.000041)
  14 C  ( 0.000000,  0.000000,  0.000449)
  15 C  ( 0.000000,  0.000000,  0.000062)
  16 C  ( 0.000000,  0.000000, -0.000246)
  17 C  ( 0.000000,  0.000000,  0.000015)
  18 C  ( 0.000000,  0.000000,  0.000284)
  19 C  ( 0.000000,  0.000000,  0.000025)
  20 C  ( 0.000000,  0.000000, -0.000059)
  21 C  ( 0.000000,  0.000000, -0.000210)
  22 C  ( 0.000000,  0.000000, -0.000035)
  23 C  ( 0.000000,  0.000000, -0.001115)
  24 C  ( 0.000000,  0.000000,  0.000106)
  25 C  ( 0.000000,  0.000000,  0.000020)
  26 C  ( 0.000000,  0.000000,  0.000055)
  27 C  ( 0.000000,  0.000000,  0.000028)
  28 C  ( 0.000000,  0.000000, -0.000062)
  29 C  ( 0.000000,  0.000000, -0.000041)
  30 C  ( 0.000000,  0.000000, -0.000448)
  31 C  ( 0.000000,  0.000000, -0.001324)
  32 C  ( 0.000000,  0.000000, -0.000000)
  33 C  ( 0.000000,  0.000000, -0.000000)
  34 C  ( 0.000000,  0.000000, -0.000039)
  35 C  ( 0.000000,  0.000000,  0.000039)
  36 C  ( 0.000000,  0.000000,  0.000003)
  37 C  ( 0.000000,  0.000000,  0.000000)
  38 C  ( 0.000000,  0.000000,  0.000000)
  39 C  ( 0.000000,  0.000000, -0.000003)
  40 C  ( 0.000000,  0.000000,  0.001612)
  41 C  ( 0.000000,  0.000000, -0.000163)
  42 C  ( 0.000000,  0.000000,  0.000029)
  43 C  ( 0.000000,  0.000000,  0.000096)
  44 C  ( 0.000000,  0.000000, -0.000895)
  45 C  ( 0.000000,  0.000000, -0.000075)
  46 C  ( 0.000000,  0.000000,  0.000003)
  47 C  ( 0.000000,  0.000000, -0.000090)
  48 C  ( 0.000000,  0.000000,  0.000246)
  49 C  ( 0.000000,  0.000000, -0.000015)
  50 C  ( 0.000000,  0.000000, -0.000025)
  51 C  ( 0.000000,  0.000000, -0.000284)
  52 C  ( 0.000000,  0.000000,  0.001115)
  53 C  ( 0.000000,  0.000000,  0.000210)
  54 C  ( 0.000000,  0.000000,  0.000035)
  55 C  ( 0.000000,  0.000000,  0.000059)
  56 C  ( 0.000000,  0.000000, -0.001611)
  57 C  ( 0.000000,  0.000000,  0.000163)
  58 C  ( 0.000000,  0.000000, -0.000096)
  59 C  ( 0.000000,  0.000000, -0.000029)
  60 C  ( 0.000000,  0.000000,  0.000089)
  61 C  ( 0.000000,  0.000000,  0.000075)
  62 C  ( 0.000000,  0.000000, -0.000003)
  63 C  ( 0.000000,  0.000000,  0.000895)
  64 C  ( 0.000000,  0.000000, -0.000000)
  65 C  ( 0.000000,  0.000000, -0.000000)
  66 C  ( 0.000000,  0.000000, -0.000008)
  67 C  ( 0.000000,  0.000000,  0.000008)
  68 C  ( 0.000000,  0.000000,  0.000102)
  69 C  ( 0.000000,  0.000000,  0.000000)
  70 C  ( 0.000000,  0.000000,  0.000000)
  71 C  ( 0.000000,  0.000000, -0.000102)
  72 C  ( 0.000000,  0.000000,  0.000000)
  73 C  ( 0.000000,  0.000000,  0.000000)
  74 C  ( 0.000000,  0.000000,  0.000033)
  75 C  ( 0.000000,  0.000000, -0.000033)
  76 C  ( 0.000000,  0.000000,  0.000867)
  77 C  ( 0.000000,  0.000000, -0.000000)
  78 C  ( 0.000000,  0.000000, -0.000000)
  79 C  ( 0.000000,  0.000000, -0.000867)
  80 C  ( 0.000000,  0.000000, -0.000092)
  81 C  ( 0.000000,  0.000000, -0.000056)
  82 C  ( 0.000000,  0.000000, -0.000092)
  83 C  ( 0.000000,  0.000000, -0.001279)
  84 C  ( 0.000000,  0.000000,  0.000408)
  85 C  ( 0.000000,  0.000000,  0.000989)
  86 C  ( 0.000000,  0.000000,  0.000049)
  87 C  ( 0.000000,  0.000000,  0.000044)
  88 C  ( 0.000000,  0.000000,  0.002943)
  89 C  ( 0.000000,  0.000000,  0.000048)
  90 C  ( 0.000000,  0.000000,  0.000036)
  91 C  ( 0.000000,  0.000000, -0.000494)
  92 C  ( 0.000000,  0.000000, -0.000036)
  93 C  ( 0.000000,  0.000000, -0.000102)
  94 C  ( 0.000000,  0.000000, -0.001013)
  95 C  ( 0.000000,  0.000000, -0.000754)
  96 C  ( 0.000000,  0.000000,  0.000092)
  97 C  ( 0.000000,  0.000000,  0.000056)
  98 C  ( 0.000000,  0.000000,  0.001279)
  99 C  ( 0.000000,  0.000000,  0.000092)
 100 C  ( 0.000000,  0.000000, -0.000044)
 101 C  ( 0.000000,  0.000000, -0.000989)
 102 C  ( 0.000000,  0.000000, -0.000049)
 103 C  ( 0.000000,  0.000000, -0.000408)
 104 C  ( 0.000000,  0.000000, -0.000000)
 105 C  ( 0.000000,  0.000000,  0.000000)
 106 C  ( 0.000000,  0.000000, -0.000555)
 107 C  ( 0.000000,  0.000000,  0.000555)
 108 C  ( 0.000000,  0.000000, -0.001750)
 109 C  ( 0.000000,  0.000000, -0.000000)
 110 C  ( 0.000000,  0.000000, -0.000000)
 111 C  ( 0.000000,  0.000000,  0.001751)
 112 C  ( 0.000000,  0.000000, -0.001617)
 113 C  ( 0.000000,  0.000000,  0.001233)
 114 C  ( 0.000000,  0.000000,  0.008810)
 115 C  ( 0.000000,  0.000000,  0.001297)
 116 C  ( 0.000000,  0.000000, -0.015420)
 117 C  ( 0.000000,  0.000000, -0.015975)
 118 C  ( 0.000000,  0.000000, -0.017564)
 119 C  ( 0.000000,  0.000000, -0.250457)
 120 C  ( 0.000000,  0.000000, -0.002943)
 121 C  ( 0.000000,  0.000000, -0.000048)
 122 C  ( 0.000000,  0.000000,  0.000494)
 123 C  ( 0.000000,  0.000000, -0.000036)
 124 C  ( 0.000000,  0.000000,  0.000755)
 125 C  ( 0.000000,  0.000000,  0.000102)
 126 C  ( 0.000000,  0.000000,  0.001012)
 127 C  ( 0.000000,  0.000000,  0.000036)
 128 C  ( 0.000000,  0.000000,  0.001617)
 129 C  ( 0.000000,  0.000000, -0.001233)
 130 C  ( 0.000000,  0.000000, -0.001297)
 131 C  ( 0.000000,  0.000000, -0.008808)
 132 C  ( 0.000000,  0.000000,  0.250402)
 133 C  ( 0.000000,  0.000000,  0.015972)
 134 C  ( 0.000000,  0.000000,  0.017561)
 135 C  ( 0.000000,  0.000000,  0.015415)
 136 C  ( 0.000000,  0.000000,  0.000000)
 137 C  ( 0.000000,  0.000000,  0.000000)
 138 C  ( 0.000000,  0.000000, -0.006891)
 139 C  ( 0.000000,  0.000000,  0.006895)
 140 C  ( 0.000000,  0.000000, -0.002862)
 141 C  ( 0.000000,  0.000000, -0.000001)
 142 C  ( 0.000000,  0.000000,  0.000000)
 143 C  ( 0.000000,  0.000000,  0.002861)
 144 C  ( 0.000000,  0.000000,  0.000000)
 145 C  ( 0.000000,  0.000000, -0.000000)
 146 C  ( 0.000000,  0.000000, -0.000011)
 147 C  ( 0.000000,  0.000000,  0.000011)
 148 C  ( 0.000000,  0.000000, -0.000023)
 149 C  ( 0.000000,  0.000000,  0.000000)
 150 C  ( 0.000000,  0.000000,  0.000000)
 151 C  ( 0.000000,  0.000000,  0.000023)
 152 C  ( 0.000000,  0.000000,  0.001272)
 153 C  ( 0.000000,  0.000000,  0.000007)
 154 C  ( 0.000000,  0.000000, -0.000049)
 155 C  ( 0.000000,  0.000000, -0.000326)
 156 C  ( 0.000000,  0.000000, -0.000037)
 157 C  ( 0.000000,  0.000000, -0.000025)
 158 C  ( 0.000000,  0.000000, -0.000668)
 159 C  ( 0.000000,  0.000000, -0.000115)
 160 C  ( 0.000000,  0.000000, -0.000511)
 161 C  ( 0.000000,  0.000000,  0.000040)
 162 C  ( 0.000000,  0.000000,  0.000032)
 163 C  ( 0.000000,  0.000000, -0.000003)
 164 C  ( 0.000000,  0.000000,  0.000031)
 165 C  ( 0.000000,  0.000000,  0.000312)
 166 C  ( 0.000000,  0.000000,  0.000053)
 167 C  ( 0.000000,  0.000000, -0.000051)
 168 C  ( 0.000000,  0.000000, -0.001273)
 169 C  ( 0.000000,  0.000000, -0.000007)
 170 C  ( 0.000000,  0.000000,  0.000326)
 171 C  ( 0.000000,  0.000000,  0.000049)
 172 C  ( 0.000000,  0.000000,  0.000115)
 173 C  ( 0.000000,  0.000000,  0.000025)
 174 C  ( 0.000000,  0.000000,  0.000668)
 175 C  ( 0.000000,  0.000000,  0.000037)
 176 C  ( 0.000000,  0.000000,  0.000000)
 177 C  ( 0.000000,  0.000000, -0.000002)
 178 C  ( 0.000000,  0.000000, -0.000073)
 179 C  ( 0.000000,  0.000000,  0.000072)
 180 C  ( 0.000000,  0.000000,  0.002051)
 181 C  ( 0.000000,  0.000000,  0.000004)
 182 C  ( 0.000000,  0.000000,  0.000059)
 183 C  ( 0.000000,  0.000000, -0.002043)
 184 C  ( 0.000000,  0.000000,  0.000463)
 185 C  ( 0.000000,  0.000000,  0.011572)
 186 C  ( 0.000000,  0.000000,  0.004445)
 187 C  ( 0.000000,  0.000000,  0.000359)
 188 C  ( 0.000000,  0.000000,  0.000060)
 189 C  ( 0.000000,  0.000000, -0.002418)
 190 C  ( 0.000000,  0.000000, -0.003535)
 191 C  ( 0.000000,  0.000000, -0.000653)
 192 C  ( 0.000000,  0.000000,  0.000511)
 193 C  ( 0.000000,  0.000000, -0.000040)
 194 C  ( 0.000000,  0.000000,  0.000003)
 195 C  ( 0.000000,  0.000000, -0.000032)
 196 C  ( 0.000000,  0.000000,  0.000051)
 197 C  ( 0.000000,  0.000000, -0.000312)
 198 C  ( 0.000000,  0.000000, -0.000053)
 199 C  ( 0.000000,  0.000000, -0.000031)
 200 C  ( 0.000000,  0.000000, -0.000463)
 201 C  ( 0.000000,  0.000000, -0.011571)
 202 C  ( 0.000000,  0.000000, -0.000359)
 203 C  ( 0.000000,  0.000000, -0.004450)
 204 C  ( 0.000000,  0.000000,  0.000655)
 205 C  ( 0.000000,  0.000000,  0.002418)
 206 C  ( 0.000000,  0.000000,  0.003535)
 207 C  ( 0.000000,  0.000000, -0.000060)
 208 C  ( 0.000000,  0.000000,  0.000000)
 209 C  ( 0.000000,  0.000000, -0.001288)
 210 C  ( 0.000000,  0.000000,  0.001287)
 211 C  ( 0.000000,  0.000000,  0.000117)
 212 N  ( 0.000000,  0.000000, -0.000002)
 213 C  ( 0.000000,  0.000000, -0.000000)
 214 C  ( 0.000000,  0.000000, -0.000117)

Energy contributions relative to reference atoms: (reference = -221394.138216)

Kinetic:       +1741.981326
Potential:     -1571.502964
External:        +0.000000
XC:            -2330.588168
Entropy (-ST):   +0.000000
Local:           +2.846976
SIC:             +0.000000
--------------------------
Free energy:   -2157.262830
Extrapolated:  -2157.262830

HYB_GGA_XC_HSE06 + 0.25 * EXX(omega = 0.11 bohr^-1)
Short-range Coulomb: erfc(omega*r)/r (omega = 0.11 bohr^-1)
Spin contamination: 0.925177 electrons
                   Up                     Down
 Band  Eigenvalues  Occupancy  Eigenvalues  Occupancy
    0    -12.12290    1.00000    -12.12291    1.00000
    1    -11.22311    1.00000    -11.22311    1.00000
    2    -11.02113    1.00000    -11.02113    1.00000
    3    -11.01866    1.00000    -11.01866    1.00000
    4    -10.97846    1.00000    -10.97846    1.00000
    5    -10.96685    1.00000    -10.96685    1.00000
    6    -10.87692    1.00000    -10.87692    1.00000
    7    -10.30180    1.00000    -10.30180    1.00000
    8     -9.92688    1.00000     -9.92688    1.00000
    9     -9.92121    1.00000     -9.92121    1.00000
   10     -9.91684    1.00000     -9.91684    1.00000
   11     -9.91376    1.00000     -9.91376    1.00000
   12     -9.90102    1.00000     -9.90102    1.00000
   13     -9.88005    1.00000     -9.88005    1.00000
   14     -9.86805    1.00000     -9.86805    1.00000
   15     -9.86197    1.00000     -9.86197    1.00000
   16     -9.81713    1.00000     -9.81713    1.00000
   17     -9.79739    1.00000     -9.79738    1.00000
   18     -9.61479    1.00000     -9.61479    1.00000
   19     -9.07973    1.00000     -9.07973    1.00000
   20     -8.80523    1.00000     -8.80523    1.00000
   21     -8.79542    1.00000     -8.79542    1.00000
   22     -8.79141    1.00000     -8.79141    1.00000
   23     -8.77182    1.00000     -8.77183    1.00000
   24     -8.77015    1.00000     -8.77015    1.00000
   25     -8.75225    1.00000     -8.75224    1.00000
   26     -8.58151    1.00000     -8.58151    1.00000
   27     -7.91802    1.00000     -7.91803    1.00000
   28     -7.71114    1.00000     -7.71114    1.00000
   29     -7.70933    1.00000     -7.70933    1.00000
   30     -7.68860    1.00000     -7.68861    1.00000
   31     -7.67904    1.00000     -7.67904    1.00000
   32     -7.62171    1.00000     -7.62171    1.00000
   33     -7.26692    1.00000     -7.26692    1.00000
   34     -6.73585    1.00000     -6.73585    1.00000
   35     -6.73396    1.00000     -6.73396    1.00000
   36     -6.72949    1.00000     -6.72949    1.00000
   37     -6.72345    1.00000     -6.72345    1.00000
   38     -6.72204    1.00000     -6.72203    1.00000
   39     -6.71280    1.00000     -6.71280    1.00000
   40     -6.70789    1.00000     -6.70789    1.00000
   41     -6.70237    1.00000     -6.70237    1.00000
   42     -6.69909    1.00000     -6.69909    1.00000
   43     -6.69075    1.00000     -6.69075    1.00000
   44     -6.68772    1.00000     -6.68771    1.00000
   45     -6.68512    1.00000     -6.68512    1.00000
   46     -6.68103    1.00000     -6.68103    1.00000
   47     -6.67528    1.00000     -6.67528    1.00000
   48     -6.65596    1.00000     -6.65596    1.00000
   49     -6.64633    1.00000     -6.64633    1.00000
   50     -6.63898    1.00000     -6.63898    1.00000
   51     -6.63024    1.00000     -6.63024    1.00000
   52     -6.62731    1.00000     -6.62731    1.00000
   53     -6.60840    1.00000     -6.60840    1.00000
   54     -6.54474    1.00000     -6.54475    1.00000
   55     -6.51631    1.00000     -6.51630    1.00000
   56     -6.34610    1.00000     -6.34610    1.00000
   57     -6.13689    1.00000     -6.13689    1.00000
   58     -5.89444    1.00000     -5.89444    1.00000
   59     -5.89083    1.00000     -5.89083    1.00000
   60     -5.86129    1.00000     -5.86129    1.00000
   61     -5.86023    1.00000     -5.86023    1.00000
   62     -5.85806    1.00000     -5.85806    1.00000
   63     -5.84566    1.00000     -5.84566    1.00000
   64     -5.84372    1.00000     -5.84372    1.00000
   65     -5.83912    1.00000     -5.83912    1.00000
   66     -5.83411    1.00000     -5.83411    1.00000
   67     -5.82568    1.00000     -5.82568    1.00000
   68     -5.82160    1.00000     -5.82160    1.00000
   69     -5.80523    1.00000     -5.80523    1.00000
   70     -5.80328    1.00000     -5.80328    1.00000
   71     -5.79632    1.00000     -5.79632    1.00000
   72     -5.77744    1.00000     -5.77744    1.00000
   73     -5.77667    1.00000     -5.77667    1.00000
   74     -5.75628    1.00000     -5.75628    1.00000
   75     -5.74915    1.00000     -5.74915    1.00000
   76     -5.72099    1.00000     -5.72099    1.00000
   77     -5.69069    1.00000     -5.69069    1.00000
   78     -5.60282    1.00000     -5.60285    1.00000
   79     -5.50401    1.00000     -5.50399    1.00000
   80     -4.81135    1.00000     -4.81135    1.00000
   81     -4.19296    1.00000     -4.19296    1.00000
   82     -4.01474    1.00000     -4.01474    1.00000
   83     -4.01284    1.00000     -4.01284    1.00000
   84     -3.97726    1.00000     -3.97726    1.00000
   85     -3.97512    1.00000     -3.97512    1.00000
   86     -3.96853    1.00000     -3.96853    1.00000
   87     -3.96446    1.00000     -3.96446    1.00000
   88     -3.95606    1.00000     -3.95606    1.00000
   89     -3.94582    1.00000     -3.94582    1.00000
   90     -3.90811    1.00000     -3.90813    1.00000
   91     -3.86782    1.00000     -3.86780    1.00000
   92     -3.47902    1.00000     -3.47902    1.00000
   93     -2.62195    1.00000     -2.62195    1.00000
   94     -2.56801    1.00000     -2.56801    1.00000
   95     -2.56553    1.00000     -2.56553    1.00000
   96     -2.54143    1.00000     -2.54142    1.00000
   97     -2.53995    1.00000     -2.53996    1.00000
   98     -2.49871    1.00000     -2.49871    1.00000
   99     -2.25170    1.00000     -2.25170    1.00000
  100     -2.06726    1.00000     -2.06726    1.00000
  101     -2.05689    1.00000     -2.05689    1.00000
  102     -2.02498    1.00000     -2.02498    1.00000
  103     -2.02068    1.00000     -2.02068    1.00000
  104     -2.01259    1.00000     -2.01260    1.00000
  105     -2.01168    1.00000     -2.01168    1.00000
  106     -2.00848    1.00000     -2.00848    1.00000
  107     -2.00301    1.00000     -2.00301    1.00000
  108     -1.99713    1.00000     -1.99713    1.00000
  109     -1.98776    1.00000     -1.98776    1.00000
  110     -1.97825    1.00000     -1.97824    1.00000
  111     -1.97562    1.00000     -1.97562    1.00000
  112     -1.96985    1.00000     -1.96985    1.00000
  113     -1.95846    1.00000     -1.95846    1.00000
  114     -1.90980    1.00000     -1.90980    1.00000
  115     -1.90422    1.00000     -1.90422    1.00000
  116     -1.89580    1.00000     -1.89580    1.00000
  117     -1.88468    1.00000     -1.88468    1.00000
  118     -1.86713    1.00000     -1.86714    1.00000
  119     -1.84604    1.00000     -1.84604    1.00000
  120     -1.83940    1.00000     -1.83942    1.00000
  121     -1.81150    1.00000     -1.81149    1.00000
  122     -1.76511    1.00000     -1.76511    1.00000
  123     -1.73760    1.00000     -1.73760    1.00000
  124     -1.73551    1.00000     -1.73551    1.00000
  125     -1.72711    1.00000     -1.72711    1.00000
  126     -1.70958    1.00000     -1.70958    1.00000
  127     -1.70878    1.00000     -1.70878    1.00000
  128     -1.70570    1.00000     -1.70570    1.00000
  129     -1.70178    1.00000     -1.70178    1.00000
  130     -1.69886    1.00000     -1.69886    1.00000
  131     -1.69449    1.00000     -1.69449    1.00000
  132     -1.68313    1.00000     -1.68313    1.00000
  133     -1.67129    1.00000     -1.67129    1.00000
  134     -1.67071    1.00000     -1.67071    1.00000
  135     -1.65486    1.00000     -1.65486    1.00000
  136     -1.64910    1.00000     -1.64911    1.00000
  137     -1.64431    1.00000     -1.64432    1.00000
  138     -1.64134    1.00000     -1.64133    1.00000
  139     -1.63561    1.00000     -1.63561    1.00000
  140     -1.63035    1.00000     -1.63035    1.00000
  141     -1.61819    1.00000     -1.61819    1.00000
  142     -1.59114    1.00000     -1.59113    1.00000
  143     -1.37917    1.00000     -1.37917    1.00000
  144     -1.27124    1.00000     -1.27125    1.00000
  145     -1.22121    1.00000     -1.22120    1.00000
  146     -0.84600    1.00000     -0.84600    1.00000
  147     -0.57309    1.00000     -0.57310    1.00000
  148     -0.56733    1.00000     -0.56733    1.00000
  149     -0.56104    1.00000     -0.56104    1.00000
  150     -0.52349    1.00000     -0.52349    1.00000
  151     -0.51875    1.00000     -0.51874    1.00000
  152     -0.51658    1.00000     -0.51658    1.00000
  153     -0.50764    1.00000     -0.50763    1.00000
  154     -0.48527    1.00000     -0.48527    1.00000
  155     -0.48476    1.00000     -0.48476    1.00000
  156     -0.35312    1.00000     -0.35313    1.00000
  157     -0.28520    1.00000     -0.28518    1.00000
  158      0.74738    1.00000      0.74738    1.00000
  159      1.17832    1.00000      1.17831    1.00000
  160      1.17994    1.00000      1.17993    1.00000
  161      1.18705    1.00000      1.18705    1.00000
  162      1.24857    1.00000      1.24857    1.00000
  163      1.26143    1.00000      1.26143    1.00000
  164      1.26878    1.00000      1.26878    1.00000
  165      1.27251    1.00000      1.27251    1.00000
  166      1.27552    1.00000      1.27552    1.00000
  167      1.27660    1.00000      1.27660    1.00000
  168      1.28059    1.00000      1.28059    1.00000
  169      1.28914    1.00000      1.28914    1.00000
  170      1.29614    1.00000      1.29614    1.00000
  171      1.30279    1.00000      1.30279    1.00000
  172      1.30356    1.00000      1.30356    1.00000
  173      1.32319    1.00000      1.32319    1.00000
  174      1.33254    1.00000      1.33254    1.00000
  175      1.44248    1.00000      1.44248    1.00000
  176      1.45518    1.00000      1.45518    1.00000
  177      1.46132    1.00000      1.46132    1.00000
  178      1.47087    1.00000      1.47087    1.00000
  179      1.83052    1.00000      1.83052    1.00000
  180      1.83282    1.00000      1.83282    1.00000
  181      1.86133    1.00000      1.86132    1.00000
  182      1.92952    1.00000      1.92952    1.00000
  183      1.93314    1.00000      1.93314    1.00000
  184      1.93579    1.00000      1.93579    1.00000
  185      1.94043    1.00000      1.94043    1.00000
  186      1.94196    1.00000      1.94196    1.00000
  187      1.94536    1.00000      1.94536    1.00000
  188      1.95234    1.00000      1.95235    1.00000
  189      1.95383    1.00000      1.95383    1.00000
  190      1.95631    1.00000      1.95631    1.00000
  191      1.95830    1.00000      1.95829    1.00000
  192      1.96245    1.00000      1.96245    1.00000
  193      1.97137    1.00000      1.97137    1.00000
  194      1.97425    1.00000      1.97425    1.00000
  195      1.99128    1.00000      1.99128    1.00000
  196      1.99606    1.00000      1.99606    1.00000
  197      2.00283    1.00000      2.00283    1.00000
  198      2.00828    1.00000      2.00828    1.00000
  199      2.02421    1.00000      2.02421    1.00000
  200      2.22248    1.00000      2.22247    1.00000
  201      2.29720    1.00000      2.29722    1.00000
  202      2.88709    1.00000      2.88709    1.00000
  203      2.89093    1.00000      2.89093    1.00000
  204      2.89311    1.00000      2.89311    1.00000
  205      2.95456    1.00000      2.95456    1.00000
  206      2.95628    1.00000      2.95628    1.00000
  207      2.96168    1.00000      2.96168    1.00000
  208      2.96484    1.00000      2.96484    1.00000
  209      2.96757    1.00000      2.96757    1.00000
  210      2.97538    1.00000      2.97538    1.00000
  211      2.98256    1.00000      2.98255    1.00000
  212      2.98263    1.00000      2.98263    1.00000
  213      2.99286    1.00000      2.99286    1.00000
  214      3.00026    1.00000      3.00026    1.00000
  215      3.00719    1.00000      3.00719    1.00000
  216      3.05491    1.00000      3.05491    1.00000
  217      3.06338    1.00000      3.06338    1.00000
  218      3.07324    1.00000      3.07324    1.00000
  219      3.07799    1.00000      3.07798    1.00000
  220      3.08340    1.00000      3.08340    1.00000
  221      3.11440    1.00000      3.11439    1.00000
  222      3.13074    1.00000      3.13074    1.00000
  223      3.17901    1.00000      3.17901    1.00000
  224      3.20328    1.00000      3.20328    1.00000
  225      3.21211    1.00000      3.21211    1.00000
  226      3.26593    1.00000      3.26593    1.00000
  227      3.43153    1.00000      3.43153    1.00000
  228      3.43878    1.00000      3.43878    1.00000
  229      3.49728    1.00000      3.49728    1.00000
  230      3.53929    1.00000      3.53929    1.00000
  231      3.54101    1.00000      3.54101    1.00000
  232      3.55361    1.00000      3.55361    1.00000
  233      3.55670    1.00000      3.55670    1.00000
  234      3.56090    1.00000      3.56091    1.00000
  235      3.56631    1.00000      3.56631    1.00000
  236      3.56767    1.00000      3.56766    1.00000
  237      3.57077    1.00000      3.57077    1.00000
  238      3.57687    1.00000      3.57686    1.00000
  239      3.58649    1.00000      3.58649    1.00000
  240      3.58908    1.00000      3.58908    1.00000
  241      3.59210    1.00000      3.59210    1.00000
  242      3.59560    1.00000      3.59560    1.00000
  243      3.60364    1.00000      3.60364    1.00000
  244      3.61166    1.00000      3.61166    1.00000
  245      3.61456    1.00000      3.61456    1.00000
  246      3.62305    1.00000      3.62305    1.00000
  247      3.62765    1.00000      3.62765    1.00000
  248      3.63310    1.00000      3.63311    1.00000
  249      3.64345    1.00000      3.64345    1.00000
  250      3.65320    1.00000      3.65320    1.00000
  251      3.67785    1.00000      3.67785    1.00000
  252      3.69090    1.00000      3.69090    1.00000
  253      4.02222    1.00000      4.02221    1.00000
  254      4.06855    1.00000      4.06855    1.00000
  255      4.10803    1.00000      4.10804    1.00000
  256      4.61915    1.00000      4.61915    1.00000
  257      4.62388    1.00000      4.62388    1.00000
  258      4.68474    1.00000      4.68474    1.00000
  259      4.70077    1.00000      4.70077    1.00000
  260      4.71788    1.00000      4.71787    1.00000
  261      4.72898    1.00000      4.72898    1.00000
  262      4.84873    1.00000      4.84873    1.00000
  263      5.20291    1.00000      5.20291    1.00000
  264      5.21798    1.00000      5.21798    1.00000
  265      5.28627    1.00000      5.28626    1.00000
  266      5.29166    1.00000      5.29167    1.00000
  267      5.29492    1.00000      5.29492    1.00000
  268      5.30589    1.00000      5.30589    1.00000
  269      5.31253    1.00000      5.31253    1.00000
  270      5.31695    1.00000      5.31696    1.00000
  271      5.34072    1.00000      5.34072    1.00000
  272      5.39963    1.00000      5.39962    1.00000
  273      5.41617    1.00000      5.41617    1.00000
  274      5.59930    1.00000      5.59930    1.00000
  275      5.60368    1.00000      5.60368    1.00000
  276      5.71584    1.00000      5.71583    1.00000
  277      5.75219    1.00000      5.75219    1.00000
  278      5.75257    1.00000      5.75257    1.00000
  279      5.75514    1.00000      5.75514    1.00000
  280      5.75665    1.00000      5.75665    1.00000
  281      5.76359    1.00000      5.76359    1.00000
  282      5.76760    1.00000      5.76760    1.00000
  283      5.79449    1.00000      5.79449    1.00000
  284      5.82360    1.00000      5.82360    1.00000
  285      5.83121    1.00000      5.83121    1.00000
  286      5.83644    1.00000      5.83644    1.00000
  287      5.98066    1.00000      5.98066    1.00000
  288      6.00104    1.00000      6.00104    1.00000
  289      6.01407    1.00000      6.01407    1.00000
  290      6.04029    1.00000      6.04029    1.00000
  291      6.04320    1.00000      6.04320    1.00000
  292      6.04863    1.00000      6.04863    1.00000
  293      6.06075    1.00000      6.06075    1.00000
  294      6.06490    1.00000      6.06490    1.00000
  295      6.06569    1.00000      6.06569    1.00000
  296      6.06657    1.00000      6.06657    1.00000
  297      6.06678    1.00000      6.06678    1.00000
  298      6.07583    1.00000      6.07583    1.00000
  299      6.07694    1.00000      6.07694    1.00000
  300      6.08396    1.00000      6.08396    1.00000
  301      6.08485    1.00000      6.08485    1.00000
  302      6.11537    1.00000      6.11538    1.00000
  303      6.11748    1.00000      6.11748    1.00000
  304      6.13124    1.00000      6.13124    1.00000
  305      6.13516    1.00000      6.13516    1.00000
  306      6.13975    1.00000      6.13975    1.00000
  307      6.14431    1.00000      6.14432    1.00000
  308      6.14713    1.00000      6.14713    1.00000
  309      6.15113    1.00000      6.15113    1.00000
  310      6.20608    1.00000      6.20608    1.00000
  311      6.22222    1.00000      6.22222    1.00000
  312      6.24501    1.00000      6.24501    1.00000
  313      6.27766    1.00000      6.27766    1.00000
  314      6.28313    1.00000      6.28313    1.00000
  315      6.28510    1.00000      6.28510    1.00000
  316      6.28537    1.00000      6.28537    1.00000
  317      6.29080    1.00000      6.29080    1.00000
  318      6.29374    1.00000      6.29374    1.00000
  319      6.29472    1.00000      6.29472    1.00000
  320      6.29908    1.00000      6.29908    1.00000
  321      6.30264    1.00000      6.30264    1.00000
  322      6.30335    1.00000      6.30335    1.00000
  323      6.30560    1.00000      6.30560    1.00000
  324      6.31441    1.00000      6.31440    1.00000
  325      6.31650    1.00000      6.31650    1.00000
  326      6.32367    1.00000      6.32367    1.00000
  327      6.32570    1.00000      6.32570    1.00000
  328      6.33129    1.00000      6.33129    1.00000
  329      6.33270    1.00000      6.33270    1.00000
  330      6.33530    1.00000      6.33530    1.00000
  331      6.33941    1.00000      6.33941    1.00000
  332      6.34832    1.00000      6.34832    1.00000
  333      6.35123    1.00000      6.35123    1.00000
  334      6.35179    1.00000      6.35179    1.00000
  335      6.36001    1.00000      6.36001    1.00000
  336      6.36166    1.00000      6.36166    1.00000
  337      6.36820    1.00000      6.36820    1.00000
  338      6.37285    1.00000      6.37285    1.00000
  339      6.37829    1.00000      6.37830    1.00000
  340      6.38863    1.00000      6.38863    1.00000
  341      6.39130    1.00000      6.39130    1.00000
  342      6.40268    1.00000      6.40268    1.00000
  343      6.40951    1.00000      6.40952    1.00000
  344      6.41809    1.00000      6.41809    1.00000
  345      6.43548    1.00000      6.43548    1.00000
  346      6.44197    1.00000      6.44197    1.00000
  347      6.44986    1.00000      6.44986    1.00000
  348      6.47376    1.00000      6.47376    1.00000
  349      6.48865    1.00000      6.48865    1.00000
  350      6.49483    1.00000      6.49482    1.00000
  351      6.49760    1.00000      6.49760    1.00000
  352      6.51397    1.00000      6.51399    1.00000
  353      6.62502    1.00000      6.62502    1.00000
  354      6.63347    1.00000      6.63347    1.00000
  355      6.91062    1.00000      6.91062    1.00000
  356      6.92200    1.00000      6.92200    1.00000
  357      6.93787    1.00000      6.93787    1.00000
  358      7.11168    1.00000      7.11168    1.00000
  359      7.11217    1.00000      7.11217    1.00000
  360      7.17530    1.00000      7.17530    1.00000
  361      7.17717    1.00000      7.17717    1.00000
  362      7.18248    1.00000      7.18248    1.00000
  363      7.18740    1.00000      7.18740    1.00000
  364      7.21529    1.00000      7.21528    1.00000
  365      7.21711    1.00000      7.21711    1.00000
  366      7.21954    1.00000      7.21954    1.00000
  367      7.22555    1.00000      7.22555    1.00000
  368      7.23906    1.00000      7.23906    1.00000
  369      7.24535    1.00000      7.24535    1.00000
  370      7.24745    1.00000      7.24745    1.00000
  371      7.25188    1.00000      7.25187    1.00000
  372      7.25919    1.00000      7.25920    1.00000
  373      7.27126    1.00000      7.27127    1.00000
  374      7.28117    1.00000      7.28118    1.00000
  375      7.29178    1.00000      7.29178    1.00000
  376      7.31259    1.00000      7.31258    1.00000
  377      7.36773    1.00000      7.36774    1.00000
  378      7.41775    1.00000      7.41775    1.00000
  379      8.09875    1.00000      8.09875    1.00000
  380      8.25141    1.00000      8.25138    1.00000
  381      8.33639    1.00000      8.33640    1.00000
  382      8.65493    1.00000      8.65492    1.00000
  383      8.73271    1.00000      8.73272    1.00000
  384      8.74077    1.00000      8.74077    1.00000
  385      8.78329    1.00000      8.78329    1.00000
  386      8.78858    1.00000      8.78858    1.00000
  387      8.79033    1.00000      8.79033    1.00000
  388      8.80775    1.00000      8.80775    1.00000
  389      8.81016    1.00000      8.81016    1.00000
  390      8.81826    1.00000      8.81826    1.00000
  391      8.82740    1.00000      8.82739    1.00000
  392      8.87849    1.00000      8.87849    1.00000
  393      8.88400    1.00000      8.88400    1.00000
  394      8.89367    1.00000      8.89367    1.00000
  395      8.97029    1.00000      8.97029    1.00000
  396      8.97618    1.00000      8.97618    1.00000
  397      9.02964    1.00000      9.02963    1.00000
  398      9.03411    1.00000      9.03410    1.00000
  399      9.04200    1.00000      9.04200    1.00000
  400      9.04403    1.00000      9.04403    1.00000
  401      9.04983    1.00000      9.04983    1.00000
  402      9.05348    1.00000      9.05348    1.00000
  403      9.05802    1.00000      9.05802    1.00000
  404      9.06215    1.00000      9.06215    1.00000
  405      9.08209    1.00000      9.08209    1.00000
  406      9.08416    1.00000      9.08415    1.00000
  407      9.10209    1.00000      9.10209    1.00000
  408      9.11195    1.00000      9.11195    1.00000
  409      9.11888    1.00000      9.11889    1.00000
  410      9.12807    1.00000      9.12807    1.00000
  411      9.15298    1.00000      9.15298    1.00000
  412      9.15764    1.00000      9.15764    1.00000
  413      9.75372    1.00000      9.75372    1.00000
  414      9.79057    1.00000      9.79056    1.00000
  415      9.82351    1.00000      9.82352    1.00000
  416     10.03574    1.00000     10.03573    1.00000
  417     10.04877    1.00000     10.04877    1.00000
  418     10.05708    1.00000     10.05708    1.00000
  419     10.08090    1.00000     10.08090    1.00000
  420     10.08375    1.00000     10.08375    1.00000
  421     10.08563    1.00000     10.08564    1.00000
  422     10.11709    1.00000     10.11709    1.00000
  423     10.15330    1.00000     10.15329    1.00000
  424     10.16436    1.00000     10.16436    1.00000
  425     10.17039    1.00000     10.17036    1.00000
  426     11.32344    1.00000     11.32340    1.00000
  427     11.46015    1.00000     11.46017    1.00000
  428     11.49008    1.00000     11.49008    1.00000
  429     12.28392    1.00000     12.28379    1.00000
  430     13.94997    1.00000     13.95013    1.00000
  431     16.27376    0.00000     16.27715    0.00000
  432     19.05054    0.00000     19.05055    0.00000
  433     19.05770    0.00000     19.05770    0.00000
  434     19.06164    0.00000     19.06164    0.00000
  435     19.06882    0.00000     19.06882    0.00000
  436     19.07576    0.00000     19.07576    0.00000
  437     19.12046    0.00000     19.12047    0.00000
  438     19.23608    0.00000     19.23608    0.00000
  439     19.24300    0.00000     19.24300    0.00000
  440     19.34659    0.00000     19.34654    0.00000
  441     19.36610    0.00000     19.36609    0.00000
  442     19.38493    0.00000     19.38496    0.00000

Fermi level: 13.52089

Gap: 1.666 eV
Transition (v -> c):
  (s=0, k=0, n=429, [[0.00, 0.00, 0.00]]) -> (s=0, k=0, n=430, [[0.00, 0.00, 0.00]])
No difference between direct/indirect transitions
Unit cell:
           periodic     x           y           z      points  spacing
  1. axis:    yes   10.639295    0.000000    0.000000    63     0.1689
  2. axis:    yes    0.000000   10.639295    0.000000    63     0.1689
  3. axis:    yes    0.000000    0.000000   10.639295    63     0.1689

  Lengths:  10.639295  10.639295  10.639295
  Angles:   90.000000  90.000000  90.000000

Effective grid spacing dv^(1/3) = 0.1689

     iter     time        total  log10-change:  magmom
                         energy   eigst   dens
iter:   1 23:01:59 -2156.631942   -1.84  -2.88    +0.0000
iter:   2 23:11:48 -2156.809632   -2.20  -3.47    +0.0000
iter:   3 23:21:38 -2156.969986c  -2.49  -3.48    -0.0000
iter:   4 23:31:28 -2157.065981c  -2.49  -3.34    +0.0000
iter:   5 23:41:19 -2157.125102c  -2.72  -3.64    +0.0000
iter:   6 23:51:09 -2157.176372c  -3.05  -3.54    -0.0000
iter:   7 00:00:59 -2157.225796c  -3.16  -3.72    +0.0000
iter:   8 00:10:49 -2157.252770c  -3.41  -4.29c   +0.0000
iter:   9 00:20:39 -2157.257876c  -3.70  -4.07c   -0.0000
iter:  10 00:30:29 -2157.255423c  -3.86  -4.83c   +0.0000
iter:  11 00:40:20 -2157.257814c  -3.94  -4.10c   -0.0000
iter:  12 00:50:10 -2157.267012c  -4.05  -3.96    +0.0000
iter:  13 00:59:59 -2157.260681c  -4.80  -4.23c   -0.0000
iter:  14 01:09:49 -2157.262951c  -5.05  -4.93c   -0.0000
iter:  15 01:19:40 -2157.263017c  -5.27  -4.81c   -0.0000
iter:  16 01:29:29 -2157.263326c  -5.62  -5.28c   +0.0000
iter:  17 01:39:19 -2157.263587c  -5.64  -5.13c   +0.0000
iter:  18 01:49:08 -2157.264200c  -5.90  -5.34c   -0.0000
iter:  19 01:58:58 -2157.264149c  -6.21  -5.63c   -0.0000
iter:  20 02:08:49 -2157.263957c  -6.38  -5.84c   +0.0000
iter:  21 02:18:39 -2157.263921c  -6.37  -5.65c   +0.0000
iter:  22 02:28:29 -2157.263549c  -6.16  -5.07c   +0.0000
iter:  23 02:38:18 -2157.264095c  -6.62  -5.43c   -0.0000
iter:  24 02:48:09 -2157.263981c  -6.84  -5.69c   -0.0000
iter:  25 02:57:58 -2157.263904c  -6.80  -5.73c   +0.0000
iter:  26 03:07:48 -2157.263830c  -6.66  -5.77c   +0.0000
iter:  27 03:17:38 -2157.263607c  -6.44  -5.53c   -0.0000
iter:  28 03:27:27 -2157.262993c  -6.11  -5.14c   +0.0000
iter:  29 03:37:17 -2157.263417c  -6.07  -5.22c   -0.0000
iter:  30 03:47:07 -2157.263180c  -6.05  -5.00c   -0.0000
iter:  31 03:56:57 -2157.263539c  -5.87  -5.04c   -0.0000
iter:  32 04:06:48 -2157.263007c  -5.62  -4.82c   +0.0000
iter:  33 04:16:38 -2157.263036c  -5.35  -4.39c   +0.0000
iter:  34 04:26:29 -2157.264213c  -5.61  -5.25c   -0.0000
iter:  35 04:36:19 -2157.263662c  -5.73  -4.74c   +0.0000
iter:  36 04:46:09 -2157.263445c  -5.46  -4.65c   -0.0000
iter:  37 04:55:58 -2157.262975c  -5.19  -4.44c   +0.0000
iter:  38 05:05:47 -2157.262711c  -5.00  -4.25c   -0.0000
iter:  39 05:15:37 -2157.260891c  -4.39  -3.87    -0.0000
iter:  40 05:25:28 -2157.268983c  -5.12  -4.04c   -0.0000
iter:  41 05:35:17 -2157.265570c  -5.24  -5.20c   +0.0000
iter:  42 05:45:07 -2157.267559c  -5.52  -4.44c   -0.0000
iter:  43 05:54:57 -2157.266809c  -5.53  -4.93c   -0.0000
iter:  44 06:04:47 -2157.270067c  -5.10  -4.45c   +0.0000
iter:  45 06:14:37 -2157.265363c  -5.55  -4.81c   +0.0000
iter:  46 06:24:26 -2157.265635c  -5.85  -5.19c   -0.0000
iter:  47 06:34:15 -2157.266385c  -6.14  -5.45c   +0.0000
iter:  48 06:44:05 -2157.267009c  -6.21  -5.07c   -0.0000
iter:  49 06:53:55 -2157.266957c  -6.09  -4.84c   -0.0000
iter:  50 07:03:45 -2157.265651c  -6.46  -5.80c   -0.0000
iter:  51 07:13:34 -2157.266195c  -6.60  -4.93c   +0.0000
iter:  52 07:23:25 -2157.265957c  -6.28  -5.08c   -0.0000
iter:  53 07:33:14 -2157.265817c  -6.47  -6.03c   -0.0000
iter:  54 07:43:04 -2157.265635c  -6.94  -5.91c   +0.0000
iter:  55 07:52:54 -2157.265641c  -7.05  -5.58c   +0.0000
iter:  56 08:02:44 -2157.265487c  -6.90  -5.32c   -0.0000
iter:  57 08:12:34 -2157.265178c  -6.67  -5.02c   +0.0000
iter:  58 08:22:23 -2157.265378c  -6.20  -4.73c   -0.0000
iter:  59 08:32:13 -2157.266113c  -6.85  -5.13c   +0.0000
iter:  60 08:42:02 -2157.266107c  -7.03  -5.88c   -0.0000
iter:  61 08:51:51 -2157.266155c  -6.98  -5.91c   -0.0000
iter:  62 09:01:41 -2157.266190c  -7.03  -5.57c   +0.0000
iter:  63 09:11:31 -2157.266448c  -6.42  -4.81c   -0.0000
iter:  64 09:21:21 -2157.266080c  -6.92  -5.46c   -0.0000
iter:  65 09:31:12 -2157.265890c  -7.24  -5.83c   +0.0000
iter:  66 09:41:03 -2157.265947c  -7.24  -5.74c   +0.0000
iter:  67 09:50:52 -2157.265945c  -7.18  -5.33c   -0.0000
iter:  68 10:00:43 -2157.265991c  -7.51c -5.41c   -0.0000

Occupied states converged after 69 e/g evaluations
Unoccupied states are not converged.

Converged after 68 iterations.

Dipole moment: (0.908851, 0.789741, 0.791188) |e|*Ang

Total magnetic moment: (0.000000, 0.000000, -0.000000)
Local magnetic moments:
   0 C  ( 0.000000,  0.000000, -0.000001)
   1 C  ( 0.000000,  0.000000, -0.000020)
   2 C  ( 0.000000,  0.000000,  0.000007)
   3 C  ( 0.000000,  0.000000,  0.000009)
   4 C  ( 0.000000,  0.000000, -0.000150)
   5 C  ( 0.000000,  0.000000,  0.000005)
   6 C  ( 0.000000,  0.000000,  0.000286)
   7 C  ( 0.000000,  0.000000, -0.000153)
   8 C  ( 0.000000,  0.000000, -0.000065)
   9 C  ( 0.000000,  0.000000, -0.000048)
  10 C  ( 0.000000,  0.000000, -0.000015)
  11 C  ( 0.000000,  0.000000,  0.000012)
  12 C  ( 0.000000,  0.000000, -0.000247)
  13 C  ( 0.000000,  0.000000,  0.000024)
  14 C  ( 0.000000,  0.000000,  0.001262)
  15 C  ( 0.000000,  0.000000,  0.000038)
  16 C  ( 0.000000,  0.000000, -0.000128)
  17 C  ( 0.000000,  0.000000,  0.000022)
  18 C  ( 0.000000,  0.000000,  0.000181)
  19 C  ( 0.000000,  0.000000,  0.000006)
  20 C  ( 0.000000,  0.000000, -0.000008)
  21 C  ( 0.000000,  0.000000, -0.000110)
  22 C  ( 0.000000,  0.000000, -0.000045)
  23 C  ( 0.000000,  0.000000, -0.000640)
  24 C  ( 0.000000,  0.000000, -0.000062)
  25 C  ( 0.000000,  0.000000, -0.000048)
  26 C  ( 0.000000,  0.000000,  0.000011)
  27 C  ( 0.000000,  0.000000, -0.000014)
  28 C  ( 0.000000,  0.000000,  0.000036)
  29 C  ( 0.000000,  0.000000,  0.000024)
  30 C  ( 0.000000,  0.000000,  0.001257)
  31 C  ( 0.000000,  0.000000, -0.000262)
  32 C  ( 0.000000,  0.000000, -0.000103)
  33 C  ( 0.000000,  0.000000, -0.001475)
  34 C  ( 0.000000,  0.000000, -0.000084)
  35 C  ( 0.000000,  0.000000, -0.000083)
  36 C  ( 0.000000,  0.000000,  0.000058)
  37 C  ( 0.000000,  0.000000,  0.001145)
  38 C  ( 0.000000,  0.000000,  0.000491)
  39 C  ( 0.000000,  0.000000,  0.000058)
  40 C  ( 0.000000,  0.000000,  0.002408)
  41 C  ( 0.000000,  0.000000, -0.000475)
  42 C  ( 0.000000,  0.000000,  0.000023)
  43 C  ( 0.000000,  0.000000,  0.000002)
  44 C  ( 0.000000,  0.000000, -0.000665)
  45 C  ( 0.000000,  0.000000, -0.000076)
  46 C  ( 0.000000,  0.000000, -0.000044)
  47 C  ( 0.000000,  0.000000, -0.000832)
  48 C  ( 0.000000,  0.000000, -0.000125)
  49 C  ( 0.000000,  0.000000,  0.000021)
  50 C  ( 0.000000,  0.000000,  0.000004)
  51 C  ( 0.000000,  0.000000,  0.000176)
  52 C  ( 0.000000,  0.000000, -0.000628)
  53 C  ( 0.000000,  0.000000, -0.000110)
  54 C  ( 0.000000,  0.000000, -0.000047)
  55 C  ( 0.000000,  0.000000, -0.000006)
  56 C  ( 0.000000,  0.000000,  0.002385)
  57 C  ( 0.000000,  0.000000, -0.000475)
  58 C  ( 0.000000,  0.000000,  0.000001)
  59 C  ( 0.000000,  0.000000,  0.000024)
  60 C  ( 0.000000,  0.000000, -0.000831)
  61 C  ( 0.000000,  0.000000, -0.000073)
  62 C  ( 0.000000,  0.000000, -0.000043)
  63 C  ( 0.000000,  0.000000, -0.000652)
  64 C  ( 0.000000,  0.000000, -0.000585)
  65 C  ( 0.000000,  0.000000, -0.000002)
  66 C  ( 0.000000,  0.000000,  0.000047)
  67 C  ( 0.000000,  0.000000,  0.000047)
  68 C  ( 0.000000,  0.000000,  0.000007)
  69 C  ( 0.000000,  0.000000,  0.000363)
  70 C  ( 0.000000,  0.000000,  0.000042)
  71 C  ( 0.000000,  0.000000,  0.000003)
  72 C  ( 0.000000,  0.000000,  0.000117)
  73 C  ( 0.000000,  0.000000,  0.000035)
  74 C  ( 0.000000,  0.000000,  0.000047)
  75 C  ( 0.000000,  0.000000,  0.000048)
  76 C  ( 0.000000,  0.000000, -0.001031)
  77 C  ( 0.000000,  0.000000, -0.000048)
  78 C  ( 0.000000,  0.000000, -0.000070)
  79 C  ( 0.000000,  0.000000, -0.001037)
  80 C  ( 0.000000,  0.000000,  0.000054)
  81 C  ( 0.000000,  0.000000,  0.000077)
  82 C  ( 0.000000,  0.000000,  0.000012)
  83 C  ( 0.000000,  0.000000,  0.000734)
  84 C  ( 0.000000,  0.000000, -0.000221)
  85 C  ( 0.000000,  0.000000, -0.000562)
  86 C  ( 0.000000,  0.000000, -0.000017)
  87 C  ( 0.000000,  0.000000, -0.000022)
  88 C  ( 0.000000,  0.000000,  0.000162)
  89 C  ( 0.000000,  0.000000,  0.000086)
  90 C  ( 0.000000,  0.000000,  0.000013)
  91 C  ( 0.000000,  0.000000,  0.000093)
  92 C  ( 0.000000,  0.000000,  0.000021)
  93 C  ( 0.000000,  0.000000, -0.000033)
  94 C  ( 0.000000,  0.000000, -0.000464)
  95 C  ( 0.000000,  0.000000,  0.000321)
  96 C  ( 0.000000,  0.000000,  0.000056)
  97 C  ( 0.000000,  0.000000,  0.000078)
  98 C  ( 0.000000,  0.000000,  0.000750)
  99 C  ( 0.000000,  0.000000,  0.000013)
 100 C  ( 0.000000,  0.000000, -0.000024)
 101 C  ( 0.000000,  0.000000, -0.000574)
 102 C  ( 0.000000,  0.000000, -0.000019)
 103 C  ( 0.000000,  0.000000, -0.000221)
 104 C  ( 0.000000,  0.000000,  0.000017)
 105 C  ( 0.000000,  0.000000,  0.000627)
 106 C  ( 0.000000,  0.000000, -0.000337)
 107 C  ( 0.000000,  0.000000, -0.000332)
 108 C  ( 0.000000,  0.000000,  0.000947)
 109 C  ( 0.000000,  0.000000,  0.000048)
 110 C  ( 0.000000,  0.000000, -0.002079)
 111 C  ( 0.000000,  0.000000,  0.000978)
 112 C  ( 0.000000,  0.000000, -0.000868)
 113 C  ( 0.000000,  0.000000,  0.000804)
 114 C  ( 0.000000,  0.000000,  0.005467)
 115 C  ( 0.000000,  0.000000,  0.000683)
 116 C  ( 0.000000,  0.000000, -0.011546)
 117 C  ( 0.000000,  0.000000, -0.009340)
 118 C  ( 0.000000,  0.000000, -0.007958)
 119 C  ( 0.000000,  0.000000, -0.148662)
 120 C  ( 0.000000,  0.000000,  0.000126)
 121 C  ( 0.000000,  0.000000,  0.000086)
 122 C  ( 0.000000,  0.000000,  0.000097)
 123 C  ( 0.000000,  0.000000,  0.000013)
 124 C  ( 0.000000,  0.000000,  0.000328)
 125 C  ( 0.000000,  0.000000, -0.000028)
 126 C  ( 0.000000,  0.000000, -0.000451)
 127 C  ( 0.000000,  0.000000,  0.000024)
 128 C  ( 0.000000,  0.000000, -0.000851)
 129 C  ( 0.000000,  0.000000,  0.000787)
 130 C  ( 0.000000,  0.000000,  0.000666)
 131 C  ( 0.000000,  0.000000,  0.005356)
 132 C  ( 0.000000,  0.000000, -0.145680)
 133 C  ( 0.000000,  0.000000, -0.009145)
 134 C  ( 0.000000,  0.000000, -0.007750)
 135 C  ( 0.000000,  0.000000, -0.011354)
 136 C  ( 0.000000,  0.000000,  0.000550)
 137 C  ( 0.000000,  0.000000,  0.000438)
 138 C  ( 0.000000,  0.000000,  0.009077)
 139 C  ( 0.000000,  0.000000,  0.009171)
 140 C  ( 0.000000,  0.000000, -0.002476)
 141 C  ( 0.000000,  0.000000, -0.002785)
 142 C  ( 0.000000,  0.000000,  0.000079)
 143 C  ( 0.000000,  0.000000, -0.002437)
 144 C  ( 0.000000,  0.000000,  0.000301)
 145 C  ( 0.000000,  0.000000, -0.000310)
 146 C  ( 0.000000,  0.000000, -0.000022)
 147 C  ( 0.000000,  0.000000, -0.000020)
 148 C  ( 0.000000,  0.000000,  0.000054)
 149 C  ( 0.000000,  0.000000,  0.000255)
 150 C  ( 0.000000,  0.000000,  0.001304)
 151 C  ( 0.000000,  0.000000,  0.000056)
 152 C  ( 0.000000,  0.000000, -0.002661)
 153 C  ( 0.000000,  0.000000, -0.000038)
 154 C  ( 0.000000,  0.000000, -0.000081)
 155 C  ( 0.000000,  0.000000,  0.000377)
 156 C  ( 0.000000,  0.000000,  0.000016)
 157 C  ( 0.000000,  0.000000,  0.000099)
 158 C  ( 0.000000,  0.000000,  0.000476)
 159 C  ( 0.000000,  0.000000,  0.001094)
 160 C  ( 0.000000,  0.000000,  0.000310)
 161 C  ( 0.000000,  0.000000, -0.000009)
 162 C  ( 0.000000,  0.000000, -0.000023)
 163 C  ( 0.000000,  0.000000,  0.000006)
 164 C  ( 0.000000,  0.000000, -0.000011)
 165 C  ( 0.000000,  0.000000, -0.000182)
 166 C  ( 0.000000,  0.000000,  0.000093)
 167 C  ( 0.000000,  0.000000, -0.000085)
 168 C  ( 0.000000,  0.000000, -0.002673)
 169 C  ( 0.000000,  0.000000, -0.000040)
 170 C  ( 0.000000,  0.000000,  0.000382)
 171 C  ( 0.000000,  0.000000, -0.000081)
 172 C  ( 0.000000,  0.000000,  0.001095)
 173 C  ( 0.000000,  0.000000,  0.000100)
 174 C  ( 0.000000,  0.000000,  0.000481)
 175 C  ( 0.000000,  0.000000,  0.000017)
 176 C  ( 0.000000,  0.000000,  0.001951)
 177 C  ( 0.000000,  0.000000, -0.009889)
 178 C  ( 0.000000,  0.000000, -0.001456)
 179 C  ( 0.000000,  0.000000, -0.001456)
 180 C  ( 0.000000,  0.000000,  0.018979)
 181 C  ( 0.000000,  0.000000,  0.018474)
 182 C  ( 0.000000,  0.000000,  0.287568)
 183 C  ( 0.000000,  0.000000,  0.018954)
 184 C  ( 0.000000,  0.000000, -0.000258)
 185 C  ( 0.000000,  0.000000,  0.001377)
 186 C  ( 0.000000,  0.000000, -0.010789)
 187 C  ( 0.000000,  0.000000, -0.000182)
 188 C  ( 0.000000,  0.000000, -0.000023)
 189 C  ( 0.000000,  0.000000,  0.001392)
 190 C  ( 0.000000,  0.000000, -0.001339)
 191 C  ( 0.000000,  0.000000,  0.003654)
 192 C  ( 0.000000,  0.000000,  0.000310)
 193 C  ( 0.000000,  0.000000, -0.000008)
 194 C  ( 0.000000,  0.000000,  0.000003)
 195 C  ( 0.000000,  0.000000, -0.000024)
 196 C  ( 0.000000,  0.000000, -0.000082)
 197 C  ( 0.000000,  0.000000, -0.000182)
 198 C  ( 0.000000,  0.000000,  0.000091)
 199 C  ( 0.000000,  0.000000, -0.000012)
 200 C  ( 0.000000,  0.000000, -0.000258)
 201 C  ( 0.000000,  0.000000,  0.001238)
 202 C  ( 0.000000,  0.000000, -0.000187)
 203 C  ( 0.000000,  0.000000, -0.010843)
 204 C  ( 0.000000,  0.000000,  0.003661)
 205 C  ( 0.000000,  0.000000,  0.001431)
 206 C  ( 0.000000,  0.000000, -0.001295)
 207 C  ( 0.000000,  0.000000, -0.000024)
 208 C  ( 0.000000,  0.000000,  0.001423)
 209 C  ( 0.000000,  0.000000, -0.000813)
 210 C  ( 0.000000,  0.000000, -0.000796)
 211 C  ( 0.000000,  0.000000,  0.000019)
 212 N  ( 0.000000,  0.000000,  0.002711)
 213 C  ( 0.000000,  0.000000,  0.000220)
 214 C  ( 0.000000,  0.000000,  0.000012)

Energy contributions relative to reference atoms: (reference = -221394.138216)

Kinetic:       +1741.993426
Potential:     -1571.510447
External:        +0.000000
XC:            -2330.595464
Entropy (-ST):   +0.000000
Local:           +2.846499
SIC:             +0.000000
--------------------------
Free energy:   -2157.265986
Extrapolated:  -2157.265986

HYB_GGA_XC_HSE06 + 0.25 * EXX(omega = 0.11 bohr^-1)
Short-range Coulomb: erfc(omega*r)/r (omega = 0.11 bohr^-1)
Spin contamination: 1.005533 electrons
                   Up                     Down
 Band  Eigenvalues  Occupancy  Eigenvalues  Occupancy
    0    -12.12324    1.00000    -12.12247    1.00000
    1    -11.22388    1.00000    -11.22282    1.00000
    2    -11.02118    1.00000    -11.02067    1.00000
    3    -11.01884    1.00000    -11.01861    1.00000
    4    -10.98360    1.00000    -10.97538    1.00000
    5    -10.96303    1.00000    -10.96765    1.00000
    6    -10.87693    1.00000    -10.87729    1.00000
    7    -10.30264    1.00000    -10.30135    1.00000
    8     -9.92787    1.00000     -9.92612    1.00000
    9     -9.92067    1.00000     -9.92163    1.00000
   10     -9.91807    1.00000     -9.91716    1.00000
   11     -9.91244    1.00000     -9.91285    1.00000
   12     -9.90101    1.00000     -9.89999    1.00000
   13     -9.88537    1.00000     -9.87789    1.00000
   14     -9.86506    1.00000     -9.86708    1.00000
   15     -9.86282    1.00000     -9.86245    1.00000
   16     -9.82281    1.00000     -9.80896    1.00000
   17     -9.79149    1.00000     -9.80453    1.00000
   18     -9.61471    1.00000     -9.61573    1.00000
   19     -9.08030    1.00000     -9.07930    1.00000
   20     -8.80726    1.00000     -8.80149    1.00000
   21     -8.79788    1.00000     -8.79728    1.00000
   22     -8.78851    1.00000     -8.79180    1.00000
   23     -8.77684    1.00000     -8.76989    1.00000
   24     -8.77000    1.00000     -8.76332    1.00000
   25     -8.74836    1.00000     -8.75930    1.00000
   26     -8.58125    1.00000     -8.58225    1.00000
   27     -7.91943    1.00000     -7.91674    1.00000
   28     -7.71187    1.00000     -7.71071    1.00000
   29     -7.70874    1.00000     -7.70936    1.00000
   30     -7.69062    1.00000     -7.68427    1.00000
   31     -7.67784    1.00000     -7.68214    1.00000
   32     -7.62176    1.00000     -7.62150    1.00000
   33     -7.26824    1.00000     -7.26573    1.00000
   34     -6.73599    1.00000     -6.73430    1.00000
   35     -6.73599    1.00000     -6.73408    1.00000
   36     -6.72857    1.00000     -6.72680    1.00000
   37     -6.72619    1.00000     -6.72593    1.00000
   38     -6.72077    1.00000     -6.72103    1.00000
   39     -6.71108    1.00000     -6.71144    1.00000
   40     -6.70881    1.00000     -6.70891    1.00000
   41     -6.70209    1.00000     -6.70252    1.00000
   42     -6.69894    1.00000     -6.69796    1.00000
   43     -6.69179    1.00000     -6.69033    1.00000
   44     -6.68983    1.00000     -6.68797    1.00000
   45     -6.68259    1.00000     -6.68317    1.00000
   46     -6.68239    1.00000     -6.68067    1.00000
   47     -6.67435    1.00000     -6.67565    1.00000
   48     -6.66134    1.00000     -6.65278    1.00000
   49     -6.64344    1.00000     -6.64597    1.00000
   50     -6.64190    1.00000     -6.63792    1.00000
   51     -6.63305    1.00000     -6.63517    1.00000
   52     -6.62051    1.00000     -6.62361    1.00000
   53     -6.60932    1.00000     -6.60970    1.00000
   54     -6.55057    1.00000     -6.53388    1.00000
   55     -6.51103    1.00000     -6.52687    1.00000
   56     -6.34622    1.00000     -6.34586    1.00000
   57     -6.13728    1.00000     -6.13644    1.00000
   58     -5.89440    1.00000     -5.89462    1.00000
   59     -5.89135    1.00000     -5.89027    1.00000
   60     -5.86317    1.00000     -5.86118    1.00000
   61     -5.85973    1.00000     -5.85941    1.00000
   62     -5.85782    1.00000     -5.85718    1.00000
   63     -5.84726    1.00000     -5.84542    1.00000
   64     -5.84500    1.00000     -5.84031    1.00000
   65     -5.83831    1.00000     -5.83874    1.00000
   66     -5.83737    1.00000     -5.83433    1.00000
   67     -5.82554    1.00000     -5.82689    1.00000
   68     -5.81925    1.00000     -5.82230    1.00000
   69     -5.80500    1.00000     -5.80401    1.00000
   70     -5.80277    1.00000     -5.80152    1.00000
   71     -5.80047    1.00000     -5.79943    1.00000
   72     -5.77761    1.00000     -5.77759    1.00000
   73     -5.77631    1.00000     -5.77724    1.00000
   74     -5.75265    1.00000     -5.75091    1.00000
   75     -5.74270    1.00000     -5.73723    1.00000
   76     -5.72284    1.00000     -5.73407    1.00000
   77     -5.69446    1.00000     -5.69415    1.00000
   78     -5.62241    1.00000     -5.56459    1.00000
   79     -5.48537    1.00000     -5.54105    1.00000
   80     -4.81095    1.00000     -4.81241    1.00000
   81     -4.19351    1.00000     -4.19240    1.00000
   82     -4.01479    1.00000     -4.01473    1.00000
   83     -4.01297    1.00000     -4.01275    1.00000
   84     -3.98092    1.00000     -3.97683    1.00000
   85     -3.97578    1.00000     -3.97370    1.00000
   86     -3.96494    1.00000     -3.96672    1.00000
   87     -3.96029    1.00000     -3.96253    1.00000
   88     -3.96010    1.00000     -3.95843    1.00000
   89     -3.94667    1.00000     -3.94766    1.00000
   90     -3.91589    1.00000     -3.88791    1.00000
[...]
  175      1.44160    1.00000      1.44160    1.00000
  176      1.45601    1.00000      1.45601    1.00000
  177      1.45703    1.00000      1.45703    1.00000
  178      1.47101    1.00000      1.47101    1.00000
  179      1.82523    1.00000      1.82523    1.00000
  180      1.83241    1.00000      1.83241    1.00000
  181      1.85652    1.00000      1.85652    1.00000
  182      1.92487    1.00000      1.92487    1.00000
  183      1.92740    1.00000      1.92740    1.00000
  184      1.92794    1.00000      1.92794    1.00000
  185      1.93107    1.00000      1.93107    1.00000
  186      1.93668    1.00000      1.93668    1.00000
  187      1.93983    1.00000      1.93983    1.00000
  188      1.94834    1.00000      1.94834    1.00000
  189      1.95318    1.00000      1.95318    1.00000
  190      1.95471    1.00000      1.95471    1.00000
  191      1.95826    1.00000      1.95826    1.00000
  192      1.96541    1.00000      1.96541    1.00000
  193      1.97016    1.00000      1.97016    1.00000
  194      1.98169    1.00000      1.98169    1.00000
  195      1.98434    1.00000      1.98434    1.00000
  196      1.99873    1.00000      1.99873    1.00000
  197      2.00602    1.00000      2.00602    1.00000
  198      2.01965    1.00000      2.01965    1.00000
  199      2.02785    1.00000      2.02785    1.00000
  200      2.21802    1.00000      2.21802    1.00000
  201      2.30348    1.00000      2.30348    1.00000
  202      2.88074    1.00000      2.88074    1.00000
  203      2.88755    1.00000      2.88755    1.00000
  204      2.89315    1.00000      2.89315    1.00000
  205      2.94737    1.00000      2.94737    1.00000
  206      2.95445    1.00000      2.95445    1.00000
  207      2.95545    1.00000      2.95545    1.00000
  208      2.96450    1.00000      2.96450    1.00000
  209      2.96473    1.00000      2.96473    1.00000
  210      2.96929    1.00000      2.96929    1.00000
  211      2.97395    1.00000      2.97395    1.00000
  212      2.98662    1.00000      2.98662    1.00000
  213      2.99329    1.00000      2.99329    1.00000
  214      2.99855    1.00000      2.99855    1.00000
  215      3.00636    1.00000      3.00636    1.00000
  216      3.04691    1.00000      3.04691    1.00000
  217      3.06848    1.00000      3.06848    1.00000
  218      3.07154    1.00000      3.07154    1.00000
  219      3.08095    1.00000      3.08095    1.00000
  220      3.08154    1.00000      3.08154    1.00000
  221      3.09722    1.00000      3.09722    1.00000
  222      3.14058    1.00000      3.14058    1.00000
  223      3.17838    1.00000      3.17838    1.00000
  224      3.20488    1.00000      3.20488    1.00000
  225      3.20791    1.00000      3.20791    1.00000
  226      3.26415    1.00000      3.26415    1.00000
  227      3.42807    1.00000      3.42807    1.00000
  228      3.43958    1.00000      3.43958    1.00000
  229      3.49290    1.00000      3.49290    1.00000
  230      3.53516    1.00000      3.53516    1.00000
  231      3.53741    1.00000      3.53741    1.00000
  232      3.54198    1.00000      3.54198    1.00000
  233      3.54320    1.00000      3.54320    1.00000
  234      3.55967    1.00000      3.55967    1.00000
  235      3.56076    1.00000      3.56076    1.00000
  236      3.56736    1.00000      3.56736    1.00000
  237      3.57646    1.00000      3.57646    1.00000
  238      3.57864    1.00000      3.57864    1.00000
  239      3.58185    1.00000      3.58185    1.00000
  240      3.58972    1.00000      3.58972    1.00000
  241      3.59049    1.00000      3.59049    1.00000
  242      3.59952    1.00000      3.59952    1.00000
  243      3.60370    1.00000      3.60370    1.00000
  244      3.61245    1.00000      3.61245    1.00000
  245      3.61704    1.00000      3.61704    1.00000
  246      3.61986    1.00000      3.61986    1.00000
  247      3.62680    1.00000      3.62680    1.00000
  248      3.63989    1.00000      3.63989    1.00000
  249      3.64120    1.00000      3.64120    1.00000
  250      3.65794    1.00000      3.65794    1.00000
  251      3.67698    1.00000      3.67698    1.00000
  252      3.70067    1.00000      3.70067    1.00000
  253      4.02411    1.00000      4.02411    1.00000
  254      4.08022    1.00000      4.08022    1.00000
  255      4.09749    1.00000      4.09749    1.00000
  256      4.61788    1.00000      4.61788    1.00000
  257      4.62055    1.00000      4.62055    1.00000
  258      4.68065    1.00000      4.68065    1.00000
  259      4.70015    1.00000      4.70015    1.00000
  260      4.71986    1.00000      4.71986    1.00000
  261      4.72906    1.00000      4.72906    1.00000
  262      4.84857    1.00000      4.84857    1.00000
  263      5.19903    1.00000      5.19903    1.00000
  264      5.21891    1.00000      5.21891    1.00000
  265      5.27779    1.00000      5.27779    1.00000
  266      5.29172    1.00000      5.29172    1.00000
  267      5.29478    1.00000      5.29478    1.00000
  268      5.30168    1.00000      5.30168    1.00000
  269      5.30981    1.00000      5.30981    1.00000
  270      5.31872    1.00000      5.31872    1.00000
  271      5.33857    1.00000      5.33857    1.00000
  272      5.40132    1.00000      5.40132    1.00000
  273      5.41436    1.00000      5.41436    1.00000
  274      5.59714    1.00000      5.59714    1.00000
  275      5.60261    1.00000      5.60261    1.00000
  276      5.71419    1.00000      5.71419    1.00000
  277      5.74590    1.00000      5.74590    1.00000
  278      5.74932    1.00000      5.74932    1.00000
  279      5.74988    1.00000      5.74988    1.00000
  280      5.75426    1.00000      5.75426    1.00000
  281      5.76117    1.00000      5.76117    1.00000
  282      5.76550    1.00000      5.76550    1.00000
  283      5.79380    1.00000      5.79380    1.00000
  284      5.82645    1.00000      5.82645    1.00000
  285      5.83050    1.00000      5.83050    1.00000
  286      5.83588    1.00000      5.83588    1.00000
  287      5.96785    1.00000      5.96785    1.00000
  288      6.00367    1.00000      6.00367    1.00000
  289      6.01091    1.00000      6.01091    1.00000
  290      6.03547    1.00000      6.03547    1.00000
  291      6.03958    1.00000      6.03958    1.00000
  292      6.04413    1.00000      6.04413    1.00000
  293      6.05537    1.00000      6.05537    1.00000
  294      6.05592    1.00000      6.05592    1.00000
  295      6.05927    1.00000      6.05927    1.00000
  296      6.06202    1.00000      6.06202    1.00000
  297      6.06768    1.00000      6.06768    1.00000
  298      6.07220    1.00000      6.07220    1.00000
  299      6.07529    1.00000      6.07529    1.00000
  300      6.07818    1.00000      6.07818    1.00000
  301      6.08534    1.00000      6.08534    1.00000
  302      6.11133    1.00000      6.11133    1.00000
  303      6.11237    1.00000      6.11237    1.00000
  304      6.12875    1.00000      6.12875    1.00000
  305      6.13282    1.00000      6.13282    1.00000
  306      6.13741    1.00000      6.13741    1.00000
  307      6.14206    1.00000      6.14206    1.00000
  308      6.14305    1.00000      6.14305    1.00000
  309      6.15381    1.00000      6.15381    1.00000
  310      6.20139    1.00000      6.20139    1.00000
  311      6.22065    1.00000      6.22065    1.00000
  312      6.24425    1.00000      6.24425    1.00000
  313      6.27445    1.00000      6.27445    1.00000
  314      6.27610    1.00000      6.27610    1.00000
  315      6.27886    1.00000      6.27886    1.00000
  316      6.28034    1.00000      6.28034    1.00000
  317      6.28481    1.00000      6.28481    1.00000
  318      6.28604    1.00000      6.28604    1.00000
  319      6.28666    1.00000      6.28666    1.00000
  320      6.29483    1.00000      6.29483    1.00000
  321      6.29781    1.00000      6.29781    1.00000
  322      6.30247    1.00000      6.30247    1.00000
  323      6.30715    1.00000      6.30715    1.00000
  324      6.30895    1.00000      6.30895    1.00000
  325      6.31516    1.00000      6.31516    1.00000
  326      6.32202    1.00000      6.32202    1.00000
  327      6.32304    1.00000      6.32304    1.00000
  328      6.32868    1.00000      6.32868    1.00000
  329      6.33100    1.00000      6.33100    1.00000
  330      6.33657    1.00000      6.33657    1.00000
  331      6.33684    1.00000      6.33684    1.00000
  332      6.34318    1.00000      6.34318    1.00000
  333      6.34703    1.00000      6.34703    1.00000
  334      6.35522    1.00000      6.35522    1.00000
  335      6.35792    1.00000      6.35792    1.00000
  336      6.36486    1.00000      6.36486    1.00000
  337      6.36711    1.00000      6.36711    1.00000
  338      6.36985    1.00000      6.36985    1.00000
  339      6.38023    1.00000      6.38023    1.00000
  340      6.39732    1.00000      6.39732    1.00000
  341      6.39909    1.00000      6.39909    1.00000
  342      6.40145    1.00000      6.40145    1.00000
  343      6.41080    1.00000      6.41080    1.00000
  344      6.41859    1.00000      6.41859    1.00000
  345      6.43505    1.00000      6.43505    1.00000
  346      6.43949    1.00000      6.43949    1.00000
  347      6.44624    1.00000      6.44624    1.00000
  348      6.46744    1.00000      6.46744    1.00000
  349      6.48413    1.00000      6.48413    1.00000
  350      6.50086    1.00000      6.50086    1.00000
  351      6.50179    1.00000      6.50179    1.00000
  352      6.53693    1.00000      6.53693    1.00000
  353      6.63372    1.00000      6.63372    1.00000
  354      6.65573    1.00000      6.65573    1.00000
  355      6.91080    1.00000      6.91080    1.00000
  356      6.92766    1.00000      6.92766    1.00000
  357      6.93088    1.00000      6.93088    1.00000
  358      7.10881    1.00000      7.10881    1.00000
  359      7.11220    1.00000      7.11220    1.00000
  360      7.17129    1.00000      7.17129    1.00000
  361      7.17348    1.00000      7.17348    1.00000
  362      7.18027    1.00000      7.18027    1.00000
  363      7.18506    1.00000      7.18506    1.00000
  364      7.20093    1.00000      7.20093    1.00000
  365      7.20172    1.00000      7.20172    1.00000
  366      7.22097    1.00000      7.22097    1.00000
  367      7.22232    1.00000      7.22232    1.00000
  368      7.23449    1.00000      7.23449    1.00000
  369      7.24245    1.00000      7.24245    1.00000
  370      7.25072    1.00000      7.25072    1.00000
  371      7.25703    1.00000      7.25703    1.00000
  372      7.27057    1.00000      7.27057    1.00000
  373      7.28240    1.00000      7.28240    1.00000
  374      7.29538    1.00000      7.29538    1.00000
  375      7.29796    1.00000      7.29796    1.00000
  376      7.30705    1.00000      7.30705    1.00000
  377      7.38838    1.00000      7.38838    1.00000
  378      7.42807    1.00000      7.42807    1.00000
  379      8.10143    1.00000      8.10143    1.00000
  380      8.29399    1.00000      8.29399    1.00000
  381      8.31698    1.00000      8.31698    1.00000
  382      8.66699    1.00000      8.66699    1.00000
  383      8.72796    1.00000      8.72796    1.00000
  384      8.73546    1.00000      8.73546    1.00000
  385      8.77810    1.00000      8.77810    1.00000
  386      8.78333    1.00000      8.78333    1.00000
  387      8.79052    1.00000      8.79052    1.00000
  388      8.79885    1.00000      8.79885    1.00000
  389      8.80530    1.00000      8.80530    1.00000
  390      8.82312    1.00000      8.82312    1.00000
  391      8.82989    1.00000      8.82989    1.00000
  392      8.87677    1.00000      8.87677    1.00000
  393      8.88065    1.00000      8.88065    1.00000
  394      8.89786    1.00000      8.89786    1.00000
  395      8.96667    1.00000      8.96667    1.00000
  396      8.97793    1.00000      8.97793    1.00000
  397      9.01890    1.00000      9.01890    1.00000
  398      9.02966    1.00000      9.02966    1.00000
  399      9.03412    1.00000      9.03412    1.00000
  400      9.04503    1.00000      9.04503    1.00000
  401      9.04909    1.00000      9.04909    1.00000
  402      9.04968    1.00000      9.04968    1.00000
  403      9.05880    1.00000      9.05880    1.00000
  404      9.06531    1.00000      9.06531    1.00000
  405      9.07439    1.00000      9.07439    1.00000
  406      9.08318    1.00000      9.08318    1.00000
  407      9.09931    1.00000      9.09931    1.00000
  408      9.12126    1.00000      9.12126    1.00000
  409      9.13514    1.00000      9.13514    1.00000
  410      9.14730    1.00000      9.14730    1.00000
  411      9.15431    1.00000      9.15431    1.00000
  412      9.15796    1.00000      9.15796    1.00000
  413      9.75473    1.00000      9.75473    1.00000
  414      9.81178    1.00000      9.81178    1.00000
  415      9.81602    1.00000      9.81602    1.00000
  416     10.03135    1.00000     10.03135    1.00000
  417     10.04107    1.00000     10.04107    1.00000
  418     10.05821    1.00000     10.05821    1.00000
  419     10.08212    1.00000     10.08212    1.00000
  420     10.08225    1.00000     10.08225    1.00000
  421     10.08808    1.00000     10.08808    1.00000
  422     10.12622    1.00000     10.12622    1.00000
  423     10.15375    1.00000     10.15375    1.00000
  424     10.17494    1.00000     10.17494    1.00000
  425     10.20977    1.00000     10.20977    1.00000
  426     11.38056    1.00000     11.38056    1.00000
  427     11.46304    1.00000     11.46304    1.00000
  428     11.47367    1.00000     11.47367    1.00000
  429     12.46059    1.00000     12.46059    1.00000
  430     14.62600    1.00000     14.62600    1.00000
  431     14.83204    0.00000     14.83204    0.00000
  432     19.03031    0.00000     19.03031    0.00000
  433     19.05478    0.00000     19.05478    0.00000
  434     19.06154    0.00000     19.06154    0.00000
  435     19.06509    0.00000     19.06509    0.00000
  436     19.07297    0.00000     19.07297    0.00000
  437     19.11112    0.00000     19.11112    0.00000
  438     19.23328    0.00000     19.23328    0.00000
  439     19.24528    0.00000     19.24528    0.00000
  440     19.34007    0.00000     19.34007    0.00000
  441     19.36808    0.00000     19.36808    0.00000
  442     19.37094    0.00000     19.37094    0.00000

Fermi level: 15.07763

Gap: 4.198 eV
Transition (v -> c):
  (s=0, k=0, n=431, [[0.00, 0.00, 0.00]]) -> (s=0, k=0, n=432, [[0.00, 0.00, 0.00]])
No difference between direct/indirect transitions
Writing to 1phi3.gpw (mode='all')

Timing:                               incl.     excl.
------------------------------------------------------------
Hamiltonian:                          1.979     0.007   0.0% |
 Atomic:                              1.023     0.003   0.0% |
  XC Correction:                      1.020     1.020   0.0% |
 Calculate atomic Hamiltonians:       0.276     0.276   0.0% |
 Communicate:                         0.200     0.200   0.0% |
 Initialize Hamiltonian:              0.000     0.000   0.0% |
 Poisson:                             0.002     0.002   0.0% |
 XC 3D grid:                          0.472     0.472   0.0% |
LCAO initialization:                 16.996     0.077   0.0% |
 LCAO eigensolver:                    2.990     0.002   0.0% |
  Calculate projections:              0.011     0.011   0.0% |
  DenseAtomicCorrection:              0.019     0.019   0.0% |
  Distribute overlap matrix:          0.178     0.178   0.0% |
  Orbital Layouts:                    0.853     0.853   0.0% |
  Potential matrix:                   1.927     1.927   0.0% |
 LCAO to grid:                       12.573    12.573   0.0% |
 Set positions (LCAO WFS):            1.356     0.321   0.0% |
  Basic WFS set positions:            0.010     0.010   0.0% |
  Basis functions set positions:      0.001     0.001   0.0% |
  P tci:                              0.160     0.160   0.0% |
  ST tci:                             0.161     0.161   0.0% |
  mktci:                              0.702     0.702   0.0% |
PWDescriptor:                         0.015     0.015   0.0% |
SCF-cycle:                        115027.196     8.116   0.0% |
 Apply H:                          4032.443  4032.423   3.5% ||
  HMM T:                              0.020     0.020   0.0% |
 Density:                             1.852     0.000   0.0% |
  Atomic density matrices:            0.053     0.053   0.0% |
  Mix:                                1.333     1.333   0.0% |
  Multipole moments:                  0.001     0.001   0.0% |
  Pseudo density:                     0.465     0.465   0.0% |
   Symmetrize density:                0.000     0.000   0.0% |
 Direct Minimisation step:        110968.346   260.835   0.2% |
  Apply H:                        109881.307 109880.649  95.5% |-------------------------------------|
   HMM T:                             0.658     0.658   0.0% |
  Density:                          116.532     0.003   0.0% |
   Atomic density matrices:           3.295     3.295   0.0% |
   Mix:                              83.528    83.528   0.1% |
   Multipole moments:                 0.053     0.053   0.0% |
   Pseudo density:                   29.654    29.650   0.0% |
    Symmetrize density:               0.004     0.004   0.0% |
  Get Search Direction:             125.152   125.152   0.1% |
  Hamiltonian:                      374.367     1.141   0.0% |
   Atomic:                          192.986     0.918   0.0% |
    XC Correction:                  192.067   192.067   0.2% |
   Calculate atomic Hamiltonians:    52.046    52.046   0.0% |
   Communicate:                      37.902    37.902   0.0% |
   New Kinetic Energy:                7.487     7.487   0.0% |
   Poisson:                           0.084     0.084   0.0% |
   XC 3D grid:                       82.722    82.722   0.1% |
  Orthonormalize:                   121.419     0.080   0.0% |
   Orthonormalize:                    0.648     0.000   0.0% |
    calc_s_matrix:                    0.053     0.053   0.0% |
    inverse-cholesky:                 0.051     0.051   0.0% |
    projections:                      0.471     0.471   0.0% |
    rotate_psi_s:                     0.072     0.072   0.0% |
   calc_s_matrix:                     8.802     8.802   0.0% |
   inverse-cholesky:                 10.090    10.090   0.0% |
   projections:                      88.463    88.463   0.1% |
   rotate_psi_s:                     13.336    13.336   0.0% |
  projections:                       88.734    88.734   0.1% |
 Hamiltonian:                         5.976     0.018   0.0% |
  Atomic:                             3.078     0.017   0.0% |
   XC Correction:                     3.061     3.061   0.0% |
  Calculate atomic Hamiltonians:      0.831     0.831   0.0% |
  Communicate:                        0.608     0.608   0.0% |
  New Kinetic Energy:                 0.121     0.121   0.0% |
  Poisson:                            0.001     0.001   0.0% |
  XC 3D grid:                         1.319     1.319   0.0% |
 Subspace diag:                       9.058     0.002   0.0% |
  calc_h_matrix:                      8.757     0.105   0.0% |
   Apply H:                           8.652     8.648   0.0% |
    HMM T:                            0.004     0.004   0.0% |
  diagonalize:                        0.226     0.226   0.0% |
  rotate_psi:                         0.074     0.074   0.0% |
 projections:                         1.403     1.403   0.0% |
Set symmetry:                         0.000     0.000   0.0% |
Other:                                4.378     4.378   0.0% |
------------------------------------------------------------
Total:                                      115050.563 100.0%

Memory usage: 5.10 GiB
Date: Sat Sep 28 22:33:22 2024
