
  ___ ___ ___ _ _ _  
 |   |   |_  | | | | 
 | | | | | . | | | | 
 |__ |  _|___|_____|  24.6.0
 |___|_|             

User:   ac2uoma125@g03r1n28
Date:   Tue Sep  2 15:14:12 2025
Arch:   x86_64
Pid:    46893
CWD:    /work/home/ac2uoma125/gpaw/hse06_nvcenter_215/spin-purified-forces
Python: 3.12.5
gpaw:   /work/home/ac2uoma125/anaconda3/envs/gpaw2460/lib/python3.12/site-packages/gpaw
_gpaw:  /work/home/ac2uoma125/anaconda3/envs/gpaw2460/lib/python3.12/site-packages/
        _gpaw.cpython-312-x86_64-linux-gnu.so
ase:    /work/home/ac2uoma125/anaconda3/envs/gpaw2460/lib/python3.12/site-packages/ase (version 3.23.0)
numpy:  /work/home/ac2uoma125/anaconda3/envs/gpaw2460/lib/python3.12/site-packages/numpy (version 1.26.4)
scipy:  /work/home/ac2uoma125/anaconda3/envs/gpaw2460/lib/python3.12/site-packages/scipy (version 1.14.1)
libxc:  6.2.2
units:  Angstrom and eV
cores: 64
OpenMP: True
OMP_NUM_THREADS: 1

Reading from _singlet.gpw
Read dipole, energy, forces, free_energy, magmom, magmoms
Reading input parameters:
  charge: -1
  eigensolver: {blocksize: 1,
                converge_unocc: False,
                excited_state: True,
                functional: {'name': 'ks'},
                grad_tol_inner_loop: 0.0005,
                grad_tol_pz_localization: 0.0005,
                linesearch_algo: {'name': 'max-step', 'max_step': 0.2},
                localization_tol: None,
                localizationseed: None,
                localizationtype: None,
                max_step_inner_loop: 0.2,
                maxiter_inner_loop: 6,
                maxiter_pz_localization: 50,
                maxiter_unocc: 333,
                momevery: 10,
                name: etdm-fdpw,
                need_init_orbs: False,
                need_localization: False,
                printinnerloop: False,
                restart_canonical: True,
                restartevery_iloop_notconverged: 3,
                searchdir_algo: {'name': 'l-bfgs', 'memory': 3},
                use_prec: True}
  mixer: {backend: no-mixing}
  mode: {ecut: 600.0,
         name: pw}
  nbands: 444
  occupations: {name: mom,
                numbers: [[1. 1. 1. ... 0. 0. 0.]
 [1. 1. 1. ... 0. 0. 0.]],
                update_numbers: True,
                use_fixed_occupations: False,
                use_projections: True}
  spinpol: True
  symmetry: off
  xc: HSE06

Initialize ...

species:
  C:
    name: Carbon
    id: 4aa54d4b901d75f77cc0ea3eec22967b
    Z: 6.0
    valence: 4
    core: 2
    charge: 0.0
    file: /work/home/ac2uoma125/anaconda3/envs/gpaw2460/share/gpaw/C.PBE.gz
    compensation charges: {type: gauss,
                           rc: 0.20,
                           lmax: 2}
    cutoffs: {filter: 1.14,
              core: 1.14}
    projectors:
      #              energy  rcut
      - 2s(2.00)   -13.751   0.635
      - 2p(2.00)    -5.284   0.635
      -  s          13.461   0.635
      -  p          21.927   0.635
      -  d           0.000   0.635
  
    # Using partial waves for C as LCAO basis

  N:
    name: Nitrogen
    id: f7500608b86eaa90eef8b1d9a670dc53
    Z: 7.0
    valence: 5
    core: 2
    charge: 0.0
    file: /work/home/ac2uoma125/anaconda3/envs/gpaw2460/share/gpaw/N.PBE.gz
    compensation charges: {type: gauss,
                           rc: 0.18,
                           lmax: 2}
    cutoffs: {filter: 1.11,
              core: 0.96}
    projectors:
      #              energy  rcut
      - 2s(2.00)   -18.583   0.603
      - 2p(3.00)    -7.089   0.529
      -  s           8.629   0.603
      -  p          20.123   0.529
      -  d           0.000   0.577
  
    # Using partial waves for N as LCAO basis

Reference energy: -221394.138216  # eV

Spin-polarized calculation.
Magnetic moment: 2.000000

Convergence criteria:
 Maximum [total energy] change in last 3 cyles: 0.0005 eV / valence electron
 Maximum integral of absolute [dens]ity change: 0.0001 electrons / valence electron
 Maximum integral of absolute [eigenst]ate change: 4e-08 eV^2 / valence electron
 Maximum number of scf [iter]ations: 333
 (Square brackets indicate name in SCF output, whereas a 'c' in
 the SCF output indicates the quantity has converged.)

Symmetries present (total): 1

  ( 1  0  0)
  ( 0  1  0)
  ( 0  0  1)

1 k-point (Gamma)
1 k-point in the irreducible part of the Brillouin zone
       k-points in crystal coordinates                weights
   0:     0.00000000    0.00000000    0.00000000          1/1

Wave functions: Plane wave expansion
  Cutoff energy: 600.000 eV
  Number of coefficients: 40243 (reduced to 20122)
  Pulay-stress correction: 0.000000 eV/Ang^3 (de/decut=0.000000)
  Using FFTW library
  ScaLapack parameters: grid=1x1, blocksize=None
  Wavefunction extrapolation:
    Improved wavefunction reuse through dual PAW basis 

Excited-state calculation with Maximum Overlap Method
  Gaussian smearing of holes and excited electrons: off

Eigensolver
   Direct minimisation using exponential transformation.
       Search direction: L-BFGS algorithm
       Line search: step size equals one
       Preconditioning: True
       Orbital-density self-interaction corrections: ks
       WARNING: do not use it for metals as occupation numbers are
                not found variationally
 

Densities:
  Coarse grid: 63*63*63 grid
  Fine grid: 126*126*126 grid
  Total Charge: -1.000000 

Density mixing:
  Method: difference
  Backend: no-mixing
  Linear mixing parameter: 0
  old densities: 0
  Damping of long wavelength oscillations: 0 

Hamiltonian:
  XC and Coulomb potentials evaluated on a 126*126*126 grid
  Using the HSE06 Exchange-Correlation functional
  External potential:
    NoExternalPotential
Poisson solver:
  Uniform background charge: -1.000 electrons
 

XC parameters: HYB_GGA_XC_HSE06 + 0.25 * EXX(omega = 0.11 bohr^-1)

Memory estimate:
  Process memory now: 5651.05 MiB
Attribute error: AttributeError("'HybridXC' object has no attribute 'estimate_memory'")
Some object probably lacks estimate_memory() method
Memory breakdown may be incomplete
  Calculator: 2.74 MiB
    Density: 1.93 MiB
      Arrays: 1.09 MiB
      Localized functions: 0.83 MiB
      Mixer: 0.00 MiB
    Hamiltonian: 0.81 MiB
      Arrays: 0.81 MiB

Total number of cores used: 64
Domain decomposition: 4 x 4 x 4

Number of atoms: 215
Number of atomic orbitals: 860
Number of bands in calculation: 444
Number of valence electrons: 862
Bands to converge: occupied

... initialized

System changes: positions 

Initializing position-dependent things.

Density initialized from wave functions
        .--------C----------------.  
       /|  C        C             |  
      / | C       C  C C   C      |  
     / C|    C  C    C  C     C   |  
    /  C|C    C CC     C CCC   C  |  
   /    C C C    C C      N CC    |  
  /  C C| CCCCCC  C C C C  C CC   |  
 *    C C   CCCCC    C C C    C C |  
 |C    CCC C  C CCC C  CCCCC   C C|  
 |   C  CCC C    CCC C C  CCCC    C  
 |  C C | CCCC C  C CCC C  CC C   |  
 C   CC C   C C C   CCCC C   CC   |  
 |    CCCC C C CCCCC C CCCC C  C  |  
 |     C.CC-C-C-C-CC-C-C-C-C-C----.  
 |  C C/C C CC   C C CC C C CCC  /   
 |   CC     C CC    C C      C  /    
 |   /C C      CCCC    C C     /     
 |C /    C C      C C      C  /      
 | /CC      C        C C     /       
 |/                         /        
 C----------------C--------*         

Positions:
   0 C      0.002751    0.002746    0.001964    ( 0.0000,  0.0000,  0.0000)
   1 C      0.000007    1.774290    1.774224    ( 0.0000,  0.0000,  0.0000)
   2 C      1.774416    1.774410   -0.000442    ( 0.0000,  0.0000,  0.0000)
   3 C      1.774297    0.000002    1.774224    ( 0.0000,  0.0000,  0.0000)
   4 C      2.660270    0.886103    2.660210    ( 0.0000,  0.0000,  0.0000)
   5 C      0.888090    0.888084    0.887866    ( 0.0000,  0.0000,  0.0000)
   6 C      0.886110    2.660264    2.660209    ( 0.0000,  0.0000,  0.0000)
   7 C      2.660267    2.660262    0.885911    ( 0.0000,  0.0000,  0.0000)
   8 C     -0.001714   -0.001719    3.550384    ( 0.0000,  0.0000,  0.0000)
   9 C     -0.001768    1.771998    5.320320    ( 0.0000,  0.0000,  0.0000)
  10 C      1.772645    1.772637    3.546897    ( 0.0000,  0.0000,  0.0000)
  11 C      1.772000   -0.001773    5.320321    ( 0.0000,  0.0000,  0.0000)
  12 C      2.659501    0.885925    6.206498    ( 0.0000,  0.0000,  0.0000)
  13 C      0.885457    0.885451    4.434613    ( 0.0000,  0.0000,  0.0000)
  14 C      0.885927    2.659503    6.206498    ( 0.0000,  0.0000,  0.0000)
  15 C      2.659510    2.659507    4.432769    ( 0.0000,  0.0000,  0.0000)
  16 C      0.003096    0.003092    7.095823    ( 0.0000,  0.0000,  0.0000)
  17 C      0.000770    1.776970    8.866085    ( 0.0000,  0.0000,  0.0000)
  18 C      1.773031    1.773030    7.092285    ( 0.0000,  0.0000,  0.0000)
  19 C      1.776977    0.000763    8.866085    ( 0.0000,  0.0000,  0.0000)
  20 C      2.662748    0.886438    9.751846    ( 0.0000,  0.0000,  0.0000)
  21 C      0.888932    0.888925    7.979970    ( 0.0000,  0.0000,  0.0000)
  22 C      0.886445    2.662744    9.751845    ( 0.0000,  0.0000,  0.0000)
  23 C      2.657925    2.657922    7.977950    ( 0.0000,  0.0000,  0.0000)
  24 C     -0.001246    3.550174   -0.002294    ( 0.0000,  0.0000,  0.0000)
  25 C     -0.000263    5.320211    1.772062    ( 0.0000,  0.0000,  0.0000)
  26 C      1.771591    5.320658   -0.002093    ( 0.0000,  0.0000,  0.0000)
  27 C      1.772773    3.546905    1.772467    ( 0.0000,  0.0000,  0.0000)
  28 C      2.659307    4.433061    2.659369    ( 0.0000,  0.0000,  0.0000)
  29 C      0.885803    4.434467    0.884985    ( 0.0000,  0.0000,  0.0000)
  30 C      0.887809    6.207484    2.657799    ( 0.0000,  0.0000,  0.0000)
  31 C      2.657407    6.206950    0.886686    ( 0.0000,  0.0000,  0.0000)
  32 C     -0.001352    3.546734    3.546573    ( 0.0000,  0.0000,  0.0000)
  33 C     -0.003770    5.321505    5.318428    ( 0.0000,  0.0000,  0.0000)
  34 C      1.772416    5.319451    3.546058    ( 0.0000,  0.0000,  0.0000)
  35 C      1.771978    3.546495    5.318637    ( 0.0000,  0.0000,  0.0000)
  36 C      2.658524    4.433389    6.204643    ( 0.0000,  0.0000,  0.0000)
  37 C      0.884886    4.433668    4.432953    ( 0.0000,  0.0000,  0.0000)
  38 C      0.882615    6.207259    6.206119    ( 0.0000,  0.0000,  0.0000)
  39 C      2.658676    6.206529    4.431863    ( 0.0000,  0.0000,  0.0000)
  40 C     -0.001723    3.548406    7.090030    ( 0.0000,  0.0000,  0.0000)
  41 C     -0.011488    5.330903    8.861799    ( 0.0000,  0.0000,  0.0000)
  42 C      1.770990    5.321575    7.091403    ( 0.0000,  0.0000,  0.0000)
  43 C      1.770651    3.549187    8.864750    ( 0.0000,  0.0000,  0.0000)
  44 C      2.658192    4.433740    9.751337    ( 0.0000,  0.0000,  0.0000)
  45 C      0.881019    4.438378    7.976814    ( 0.0000,  0.0000,  0.0000)
  46 C      0.884947    6.209407    9.750986    ( 0.0000,  0.0000,  0.0000)
  47 C      2.660330    6.207241    7.976992    ( 0.0000,  0.0000,  0.0000)
  48 C      0.006476    7.096358    0.005858    ( 0.0000,  0.0000,  0.0000)
  49 C      0.001839    8.867266    1.776107    ( 0.0000,  0.0000,  0.0000)
  50 C      1.776857    8.867556   -0.000018    ( 0.0000,  0.0000,  0.0000)
  51 C      1.773215    7.093520    1.772466    ( 0.0000,  0.0000,  0.0000)
  52 C      2.656995    7.978374    2.657028    ( 0.0000,  0.0000,  0.0000)
  53 C      0.890617    7.980910    0.889166    ( 0.0000,  0.0000,  0.0000)
  54 C      0.886464    9.752496    2.662871    ( 0.0000,  0.0000,  0.0000)
  55 C      2.662652    9.752905    0.885714    ( 0.0000,  0.0000,  0.0000)
  56 C      0.001589    7.091390    3.543769    ( 0.0000,  0.0000,  0.0000)
  57 C     -0.012374    8.862591    5.330189    ( 0.0000,  0.0000,  0.0000)
  58 C      1.770886    8.865758    3.549186    ( 0.0000,  0.0000,  0.0000)
  59 C      1.771360    7.092630    5.320780    ( 0.0000,  0.0000,  0.0000)
  60 C      2.661255    7.978708    6.205541    ( 0.0000,  0.0000,  0.0000)
  61 C      0.881318    7.977848    4.437429    ( 0.0000,  0.0000,  0.0000)
  62 C      0.884196    9.751240    6.208613    ( 0.0000,  0.0000,  0.0000)
  63 C      2.659474    9.751219    4.434109    ( 0.0000,  0.0000,  0.0000)
  64 C     -0.007271    7.094515    7.093126    ( 0.0000,  0.0000,  0.0000)
  65 C      0.006894    8.870459    8.871086    ( 0.0000,  0.0000,  0.0000)
  66 C      1.774206    8.865121    7.092706    ( 0.0000,  0.0000,  0.0000)
  67 C      1.773865    7.093931    8.864251    ( 0.0000,  0.0000,  0.0000)
  68 C      2.662394    7.980098    9.750528    ( 0.0000,  0.0000,  0.0000)
  69 C      0.886506    7.980695    7.979553    ( 0.0000,  0.0000,  0.0000)
  70 C      0.891607    9.755726    9.754676    ( 0.0000,  0.0000,  0.0000)
  71 C      2.663388    9.751592    7.977897    ( 0.0000,  0.0000,  0.0000)
  72 C      3.550177   -0.001251   -0.002293    ( 0.0000,  0.0000,  0.0000)
  73 C      3.546908    1.772767    1.772468    ( 0.0000,  0.0000,  0.0000)
  74 C      5.320655    1.771585   -0.002089    ( 0.0000,  0.0000,  0.0000)
  75 C      5.320209   -0.000266    1.772059    ( 0.0000,  0.0000,  0.0000)
  76 C      6.207481    0.887810    2.657792    ( 0.0000,  0.0000,  0.0000)
  77 C      4.434467    0.885797    0.884985    ( 0.0000,  0.0000,  0.0000)
  78 C      4.433062    2.659303    2.659369    ( 0.0000,  0.0000,  0.0000)
  79 C      6.206948    2.657402    0.886690    ( 0.0000,  0.0000,  0.0000)
  80 C      3.546737   -0.001357    3.546573    ( 0.0000,  0.0000,  0.0000)
  81 C      3.546493    1.771973    5.318636    ( 0.0000,  0.0000,  0.0000)
  82 C      5.319450    1.772413    3.546055    ( 0.0000,  0.0000,  0.0000)
  83 C      5.321499   -0.003760    5.318421    ( 0.0000,  0.0000,  0.0000)
  84 C      6.207255    0.882617    6.206116    ( 0.0000,  0.0000,  0.0000)
  85 C      4.433666    0.884887    4.432950    ( 0.0000,  0.0000,  0.0000)
  86 C      4.433387    2.658516    6.204643    ( 0.0000,  0.0000,  0.0000)
  87 C      6.206526    2.658669    4.431862    ( 0.0000,  0.0000,  0.0000)
  88 C      3.548403   -0.001720    7.090029    ( 0.0000,  0.0000,  0.0000)
  89 C      3.549187    1.770646    8.864752    ( 0.0000,  0.0000,  0.0000)
  90 C      5.321572    1.770984    7.091404    ( 0.0000,  0.0000,  0.0000)
  91 C      5.330900   -0.011486    8.861801    ( 0.0000,  0.0000,  0.0000)
  92 C      6.209403    0.884944    9.750989    ( 0.0000,  0.0000,  0.0000)
  93 C      4.438374    0.881017    7.976816    ( 0.0000,  0.0000,  0.0000)
  94 C      4.433739    2.658185    9.751339    ( 0.0000,  0.0000,  0.0000)
  95 C      6.207237    2.660319    7.976995    ( 0.0000,  0.0000,  0.0000)
  96 C      3.546515    3.546512   -0.001877    ( 0.0000,  0.0000,  0.0000)
  97 C      3.545127    5.319326    1.771654    ( 0.0000,  0.0000,  0.0000)
  98 C      5.318862    5.318859    0.002209    ( 0.0000,  0.0000,  0.0000)
  99 C      5.319326    3.545124    1.771656    ( 0.0000,  0.0000,  0.0000)
 100 C      6.205561    4.431173    2.656520    ( 0.0000,  0.0000,  0.0000)
 101 C      4.432064    4.432062    0.886461    ( 0.0000,  0.0000,  0.0000)
 102 C      4.431172    6.205564    2.656518    ( 0.0000,  0.0000,  0.0000)
 103 C      6.206854    6.206855    0.885899    ( 0.0000,  0.0000,  0.0000)
 104 C      3.546384    3.546381    3.546085    ( 0.0000,  0.0000,  0.0000)
 105 C      3.548767    5.321530    5.319880    ( 0.0000,  0.0000,  0.0000)
 106 C      5.320346    5.320349    3.543295    ( 0.0000,  0.0000,  0.0000)
 107 C      5.321527    3.548756    5.319879    ( 0.0000,  0.0000,  0.0000)
 108 C      6.210358    4.439084    6.203158    ( 0.0000,  0.0000,  0.0000)
 109 C      4.433754    4.433751    4.431555    ( 0.0000,  0.0000,  0.0000)
 110 C      4.439098    6.210366    6.203155    ( 0.0000,  0.0000,  0.0000)
 111 C      6.204351    6.204362    4.428892    ( 0.0000,  0.0000,  0.0000)
 112 C      3.542120    3.542115    7.091264    ( 0.0000,  0.0000,  0.0000)
 113 C      3.544394    5.319586    8.865058    ( 0.0000,  0.0000,  0.0000)
 114 C      5.321427    5.321420    7.090594    ( 0.0000,  0.0000,  0.0000)
 115 C      5.319586    3.544383    8.865061    ( 0.0000,  0.0000,  0.0000)
 116 C      6.207574    4.424767    9.762324    ( 0.0000,  0.0000,  0.0000)
 117 C      4.423685    4.423679    7.976440    ( 0.0000,  0.0000,  0.0000)
 118 C      4.424781    6.207574    9.762315    ( 0.0000,  0.0000,  0.0000)
 119 C      6.107288    6.107266    8.077047    ( 0.0000,  0.0000,  0.0000)
 120 C      3.543550    7.093339    0.002508    ( 0.0000,  0.0000,  0.0000)
 121 C      3.548183    8.866669    1.771275    ( 0.0000,  0.0000,  0.0000)
 122 C      5.328897    8.865565   -0.007633    ( 0.0000,  0.0000,  0.0000)
 123 C      5.320361    7.093051    1.771525    ( 0.0000,  0.0000,  0.0000)
 124 C      6.206634    7.978842    2.658912    ( 0.0000,  0.0000,  0.0000)
 125 C      4.436744    7.979248    0.883131    ( 0.0000,  0.0000,  0.0000)
 126 C      4.433977    9.752063    2.658454    ( 0.0000,  0.0000,  0.0000)
 127 C      6.209173    9.753691    0.886041    ( 0.0000,  0.0000,  0.0000)
 128 C      3.540935    7.093723    3.539584    ( 0.0000,  0.0000,  0.0000)
 129 C      3.548326    8.863331    5.317802    ( 0.0000,  0.0000,  0.0000)
 130 C      5.319275    8.864909    3.544452    ( 0.0000,  0.0000,  0.0000)
 131 C      5.326692    7.100053    5.314910    ( 0.0000,  0.0000,  0.0000)
 132 C      6.174420    7.992202    6.142494    ( 0.0000,  0.0000,  0.0000)
 133 C      4.424800    7.973136    4.421207    ( 0.0000,  0.0000,  0.0000)
 134 C      4.435262    9.750363    6.207815    ( 0.0000,  0.0000,  0.0000)
 135 C      6.210976    9.755452    4.426441    ( 0.0000,  0.0000,  0.0000)
 136 C      3.551956    7.091544    7.090035    ( 0.0000,  0.0000,  0.0000)
 137 C      3.554053    8.862319    8.860425    ( 0.0000,  0.0000,  0.0000)
 138 C      5.346561    8.836679    7.076566    ( 0.0000,  0.0000,  0.0000)
 139 C      5.324512    7.090191    8.863114    ( 0.0000,  0.0000,  0.0000)
 140 C      6.223201    7.974916    9.742738    ( 0.0000,  0.0000,  0.0000)
 141 C      4.444313    7.974034    7.971479    ( 0.0000,  0.0000,  0.0000)
 142 C      4.439176    9.749516    9.748164    ( 0.0000,  0.0000,  0.0000)
 143 C      6.224905    9.732041    7.970610    ( 0.0000,  0.0000,  0.0000)
 144 C      7.096353    0.006475    0.005862    ( 0.0000,  0.0000,  0.0000)
 145 C      7.093517    1.773215    1.772467    ( 0.0000,  0.0000,  0.0000)
 146 C      8.867557    1.776850   -0.000015    ( 0.0000,  0.0000,  0.0000)
 147 C      8.867267    0.001835    1.776106    ( 0.0000,  0.0000,  0.0000)
 148 C      9.752499    0.886459    2.662871    ( 0.0000,  0.0000,  0.0000)
 149 C      7.980909    0.890613    0.889169    ( 0.0000,  0.0000,  0.0000)
 150 C      7.978373    2.656996    2.657032    ( 0.0000,  0.0000,  0.0000)
 151 C      9.752908    2.662648    0.885716    ( 0.0000,  0.0000,  0.0000)
 152 C      7.091386    0.001598    3.543756    ( 0.0000,  0.0000,  0.0000)
 153 C      7.092629    1.771356    5.320777    ( 0.0000,  0.0000,  0.0000)
 154 C      8.865760    1.770885    3.549185    ( 0.0000,  0.0000,  0.0000)
 155 C      8.862592   -0.012371    5.330185    ( 0.0000,  0.0000,  0.0000)
 156 C      9.751246    0.884192    6.208611    ( 0.0000,  0.0000,  0.0000)
 157 C      7.977848    0.881319    4.437423    ( 0.0000,  0.0000,  0.0000)
 158 C      7.978707    2.661247    6.205541    ( 0.0000,  0.0000,  0.0000)
 159 C      9.751221    2.659473    4.434109    ( 0.0000,  0.0000,  0.0000)
 160 C      7.094510   -0.007263    7.093124    ( 0.0000,  0.0000,  0.0000)
 161 C      7.093929    1.773858    8.864254    ( 0.0000,  0.0000,  0.0000)
 162 C      8.865124    1.774200    7.092705    ( 0.0000,  0.0000,  0.0000)
 163 C      8.870458    0.006895    8.871088    ( 0.0000,  0.0000,  0.0000)
 164 C      9.755730    0.891602    9.754678    ( 0.0000,  0.0000,  0.0000)
 165 C      7.980694    0.886505    7.979553    ( 0.0000,  0.0000,  0.0000)
 166 C      7.980097    2.662384    9.750533    ( 0.0000,  0.0000,  0.0000)
 167 C      9.751596    2.663381    7.977898    ( 0.0000,  0.0000,  0.0000)
 168 C      7.093337    3.543539    0.002514    ( 0.0000,  0.0000,  0.0000)
 169 C      7.093049    5.320361    1.771527    ( 0.0000,  0.0000,  0.0000)
 170 C      8.865565    5.328896   -0.007632    ( 0.0000,  0.0000,  0.0000)
 171 C      8.866669    3.548182    1.771278    ( 0.0000,  0.0000,  0.0000)
 172 C      9.752063    4.433978    2.658459    ( 0.0000,  0.0000,  0.0000)
 173 C      7.979247    4.436741    0.883133    ( 0.0000,  0.0000,  0.0000)
 174 C      7.978838    6.206638    2.658915    ( 0.0000,  0.0000,  0.0000)
 175 C      9.753693    6.209176    0.886041    ( 0.0000,  0.0000,  0.0000)
 176 C      7.093717    3.540936    3.539590    ( 0.0000,  0.0000,  0.0000)
 177 C      7.100029    5.326695    5.314919    ( 0.0000,  0.0000,  0.0000)
 178 C      8.864900    5.319279    3.544463    ( 0.0000,  0.0000,  0.0000)
 179 C      8.863325    3.548328    5.317805    ( 0.0000,  0.0000,  0.0000)
 180 C      9.750350    4.435267    6.207820    ( 0.0000,  0.0000,  0.0000)
 181 C      7.973125    4.424806    4.421217    ( 0.0000,  0.0000,  0.0000)
 182 C      7.992172    6.174420    6.142513    ( 0.0000,  0.0000,  0.0000)
 183 C      9.755432    6.210984    4.426459    ( 0.0000,  0.0000,  0.0000)
 184 C      7.091541    3.551942    7.090036    ( 0.0000,  0.0000,  0.0000)
 185 C      7.090189    5.324491    8.863128    ( 0.0000,  0.0000,  0.0000)
 186 C      8.836660    5.346561    7.076581    ( 0.0000,  0.0000,  0.0000)
 187 C      8.862320    3.554041    8.860428    ( 0.0000,  0.0000,  0.0000)
 188 C      9.749517    4.439173    9.748164    ( 0.0000,  0.0000,  0.0000)
 189 C      7.974029    4.444296    7.971488    ( 0.0000,  0.0000,  0.0000)
 190 C      7.974913    6.223199    9.742741    ( 0.0000,  0.0000,  0.0000)
 191 C      9.732030    6.224911    7.970614    ( 0.0000,  0.0000,  0.0000)
 192 C      7.094708    7.094710   -0.000492    ( 0.0000,  0.0000,  0.0000)
 193 C      7.093583    8.866458    1.774065    ( 0.0000,  0.0000,  0.0000)
 194 C      8.872137    8.872140    0.009190    ( 0.0000,  0.0000,  0.0000)
 195 C      8.866458    7.093585    1.774066    ( 0.0000,  0.0000,  0.0000)
 196 C      9.753299    7.980026    2.660969    ( 0.0000,  0.0000,  0.0000)
 197 C      7.981800    7.981802    0.888964    ( 0.0000,  0.0000,  0.0000)
 198 C      7.980024    9.753300    2.660966    ( 0.0000,  0.0000,  0.0000)
 199 C      9.756337    9.756335    0.892026    ( 0.0000,  0.0000,  0.0000)
 200 C      7.091615    7.091622    3.546923    ( 0.0000,  0.0000,  0.0000)
 201 C      7.080283    8.845465    5.325923    ( 0.0000,  0.0000,  0.0000)
 202 C      8.862592    8.862595    3.549390    ( 0.0000,  0.0000,  0.0000)
 203 C      8.845435    7.080301    5.325940    ( 0.0000,  0.0000,  0.0000)
 204 C      9.730734    7.968848    6.221192    ( 0.0000,  0.0000,  0.0000)
 205 C      7.976577    7.976594    4.435143    ( 0.0000,  0.0000,  0.0000)
 206 C      7.968839    9.730747    6.221184    ( 0.0000,  0.0000,  0.0000)
 207 C      9.748437    9.748436    4.438078    ( 0.0000,  0.0000,  0.0000)
 208 C      7.135575    8.865038    8.869964    ( 0.0000,  0.0000,  0.0000)
 209 C      8.855940    8.855951    7.135268    ( 0.0000,  0.0000,  0.0000)
 210 C      8.865029    7.135582    8.869966    ( 0.0000,  0.0000,  0.0000)
 211 C      9.766947    7.984579    9.768428    ( 0.0000,  0.0000,  0.0000)
 212 N      8.055492    8.055499    8.076208    ( 0.0000,  0.0000,  2.0000)
 213 C      7.984574    9.766951    9.768429    ( 0.0000,  0.0000,  0.0000)
 214 C      9.761655    9.761659    7.984445    ( 0.0000,  0.0000,  0.0000)

Unit cell:
           periodic     x           y           z      points  spacing
  1. axis:    yes   10.639295    0.000000    0.000000    63     0.1689
  2. axis:    yes    0.000000   10.639295    0.000000    63     0.1689
  3. axis:    yes    0.000000    0.000000   10.639295    63     0.1689

  Lengths:  10.639295  10.639295  10.639295
  Angles:   90.000000  90.000000  90.000000

Effective grid spacing dv^(1/3) = 0.1689

     iter     time        total  log10-change:  magmom         iter
                         energy   eigst   dens             inner loop
iter:   1 15:45:45 -2157.275663   -4.80  -5.50c   -0.0000           2
iter:   2 15:53:38 -2157.276203   -5.71  -4.50c   -0.0000           1
iter:   3 16:01:30 -2157.276128c  -6.36  -5.18c   -0.0000           1
iter:   4 16:09:24 -2157.276141c  -6.70  -5.08c   -0.0000           1
iter:   5 16:17:17 -2157.276156c  -7.18  -5.67c   -0.0000           1
iter:   6 16:25:11 -2157.276146c  -7.54c -5.96c   -0.0000           1

Occupied states converged after 9 e/g evaluations
Unoccupied states are not converged.

Converged after 6 iterations.

Dipole moment: (1.163285, 1.163967, -0.356463) |e|*Ang

Total magnetic moment: (0.000000, 0.000000, -0.000000)
Local magnetic moments:
   0 C  ( 0.000000,  0.000000,  0.000000)
   1 C  ( 0.000000,  0.000000, -0.000008)
   2 C  ( 0.000000,  0.000000,  0.000017)
   3 C  ( 0.000000,  0.000000, -0.000008)
   4 C  ( 0.000000,  0.000000,  0.000151)
   5 C  ( 0.000000,  0.000000, -0.000007)
   6 C  ( 0.000000,  0.000000,  0.000151)
   7 C  ( 0.000000,  0.000000, -0.000284)
   8 C  ( 0.000000,  0.000000, -0.000109)
   9 C  ( 0.000000,  0.000000, -0.000045)
  10 C  ( 0.000000,  0.000000, -0.000033)
  11 C  ( 0.000000,  0.000000, -0.000045)
  12 C  ( 0.000000,  0.000000,  0.001045)
  13 C  ( 0.000000,  0.000000,  0.000047)
  14 C  ( 0.000000,  0.000000,  0.001045)
  15 C  ( 0.000000,  0.000000,  0.000068)
  16 C  ( 0.000000,  0.000000, -0.000315)
  17 C  ( 0.000000,  0.000000,  0.000012)
  18 C  ( 0.000000,  0.000000,  0.000247)
  19 C  ( 0.000000,  0.000000,  0.000012)
  20 C  ( 0.000000,  0.000000, -0.000044)
  21 C  ( 0.000000,  0.000000, -0.000273)
  22 C  ( 0.000000,  0.000000, -0.000044)
  23 C  ( 0.000000,  0.000000, -0.001424)
  24 C  ( 0.000000,  0.000000,  0.000059)
  25 C  ( 0.000000,  0.000000, -0.000024)
  26 C  ( 0.000000,  0.000000,  0.000053)
  27 C  ( 0.000000,  0.000000,  0.000011)
  28 C  ( 0.000000,  0.000000, -0.000025)
  29 C  ( 0.000000,  0.000000, -0.000008)
  30 C  ( 0.000000,  0.000000,  0.000279)
  31 C  ( 0.000000,  0.000000, -0.001397)
  32 C  ( 0.000000,  0.000000, -0.000057)
  33 C  ( 0.000000,  0.000000, -0.000778)
  34 C  ( 0.000000,  0.000000, -0.000068)
  35 C  ( 0.000000,  0.000000, -0.000019)
  36 C  ( 0.000000,  0.000000,  0.000069)
  37 C  ( 0.000000,  0.000000,  0.000585)
  38 C  ( 0.000000,  0.000000,  0.000240)
  39 C  ( 0.000000,  0.000000,  0.000014)
  40 C  ( 0.000000,  0.000000,  0.002621)
  41 C  ( 0.000000,  0.000000, -0.000361)
  42 C  ( 0.000000,  0.000000,  0.000032)
  43 C  ( 0.000000,  0.000000,  0.000078)
  44 C  ( 0.000000,  0.000000, -0.000960)
  45 C  ( 0.000000,  0.000000, -0.000091)
  46 C  ( 0.000000,  0.000000, -0.000027)
  47 C  ( 0.000000,  0.000000, -0.000537)
  48 C  ( 0.000000,  0.000000,  0.000129)
  49 C  ( 0.000000,  0.000000, -0.000008)
  50 C  ( 0.000000,  0.000000, -0.000019)
  51 C  ( 0.000000,  0.000000, -0.000222)
  52 C  ( 0.000000,  0.000000,  0.000622)
  53 C  ( 0.000000,  0.000000,  0.000106)
  54 C  ( 0.000000,  0.000000,  0.000007)
  55 C  ( 0.000000,  0.000000,  0.000049)
  56 C  ( 0.000000,  0.000000, -0.000009)
  57 C  ( 0.000000,  0.000000, -0.000093)
  58 C  ( 0.000000,  0.000000, -0.000082)
  59 C  ( 0.000000,  0.000000, -0.000019)
  60 C  ( 0.000000,  0.000000, -0.000255)
  61 C  ( 0.000000,  0.000000,  0.000040)
  62 C  ( 0.000000,  0.000000, -0.000001)
  63 C  ( 0.000000,  0.000000,  0.000491)
  64 C  ( 0.000000,  0.000000, -0.000309)
  65 C  ( 0.000000,  0.000000, -0.000008)
  66 C  ( 0.000000,  0.000000,  0.000003)
  67 C  ( 0.000000,  0.000000,  0.000031)
  68 C  ( 0.000000,  0.000000,  0.000098)
  69 C  ( 0.000000,  0.000000,  0.000195)
  70 C  ( 0.000000,  0.000000,  0.000006)
  71 C  ( 0.000000,  0.000000, -0.000099)
  72 C  ( 0.000000,  0.000000,  0.000059)
  73 C  ( 0.000000,  0.000000,  0.000011)
  74 C  ( 0.000000,  0.000000,  0.000053)
  75 C  ( 0.000000,  0.000000, -0.000024)
  76 C  ( 0.000000,  0.000000,  0.000279)
  77 C  ( 0.000000,  0.000000, -0.000008)
  78 C  ( 0.000000,  0.000000, -0.000025)
  79 C  ( 0.000000,  0.000000, -0.001397)
  80 C  ( 0.000000,  0.000000, -0.000057)
  81 C  ( 0.000000,  0.000000, -0.000019)
  82 C  ( 0.000000,  0.000000, -0.000068)
  83 C  ( 0.000000,  0.000000, -0.000778)
  84 C  ( 0.000000,  0.000000,  0.000240)
  85 C  ( 0.000000,  0.000000,  0.000585)
  86 C  ( 0.000000,  0.000000,  0.000069)
  87 C  ( 0.000000,  0.000000,  0.000014)
  88 C  ( 0.000000,  0.000000,  0.002621)
  89 C  ( 0.000000,  0.000000,  0.000078)
  90 C  ( 0.000000,  0.000000,  0.000032)
  91 C  ( 0.000000,  0.000000, -0.000361)
  92 C  ( 0.000000,  0.000000, -0.000027)
  93 C  ( 0.000000,  0.000000, -0.000091)
  94 C  ( 0.000000,  0.000000, -0.000960)
  95 C  ( 0.000000,  0.000000, -0.000537)
  96 C  ( 0.000000,  0.000000,  0.000054)
  97 C  ( 0.000000,  0.000000,  0.000079)
  98 C  ( 0.000000,  0.000000,  0.001396)
  99 C  ( 0.000000,  0.000000,  0.000079)
 100 C  ( 0.000000,  0.000000, -0.000048)
 101 C  ( 0.000000,  0.000000, -0.000984)
 102 C  ( 0.000000,  0.000000, -0.000048)
 103 C  ( 0.000000,  0.000000, -0.000599)
 104 C  ( 0.000000,  0.000000, -0.000021)
 105 C  ( 0.000000,  0.000000,  0.000385)
 106 C  ( 0.000000,  0.000000, -0.000605)
 107 C  ( 0.000000,  0.000000,  0.000385)
 108 C  ( 0.000000,  0.000000, -0.001194)
 109 C  ( 0.000000,  0.000000, -0.000055)
 110 C  ( 0.000000,  0.000000, -0.001194)
 111 C  ( 0.000000,  0.000000,  0.002451)
 112 C  ( 0.000000,  0.000000, -0.002813)
 113 C  ( 0.000000,  0.000000,  0.001375)
 114 C  ( 0.000000,  0.000000,  0.011218)
 115 C  ( 0.000000,  0.000000,  0.001375)
 116 C  ( 0.000000,  0.000000, -0.020475)
 117 C  ( 0.000000,  0.000000, -0.019469)
 118 C  ( 0.000000,  0.000000, -0.020475)
 119 C  ( 0.000000,  0.000000, -0.296525)
 120 C  ( 0.000000,  0.000000, -0.003188)
 121 C  ( 0.000000,  0.000000, -0.000009)
 122 C  ( 0.000000,  0.000000,  0.000470)
 123 C  ( 0.000000,  0.000000, -0.000019)
 124 C  ( 0.000000,  0.000000,  0.000853)
 125 C  ( 0.000000,  0.000000,  0.000106)
 126 C  ( 0.000000,  0.000000,  0.000675)
 127 C  ( 0.000000,  0.000000,  0.000014)
 128 C  ( 0.000000,  0.000000,  0.000823)
 129 C  ( 0.000000,  0.000000, -0.000712)
 130 C  ( 0.000000,  0.000000, -0.000836)
 131 C  ( 0.000000,  0.000000, -0.005928)
 132 C  ( 0.000000,  0.000000,  0.156611)
 133 C  ( 0.000000,  0.000000,  0.009240)
 134 C  ( 0.000000,  0.000000,  0.011739)
 135 C  ( 0.000000,  0.000000,  0.008543)
 136 C  ( 0.000000,  0.000000,  0.000307)
 137 C  ( 0.000000,  0.000000,  0.000202)
 138 C  ( 0.000000,  0.000000, -0.001135)
 139 C  ( 0.000000,  0.000000,  0.012295)
 140 C  ( 0.000000,  0.000000, -0.004291)
 141 C  ( 0.000000,  0.000000, -0.002048)
 142 C  ( 0.000000,  0.000000, -0.000002)
 143 C  ( 0.000000,  0.000000,  0.001264)
 144 C  ( 0.000000,  0.000000,  0.000129)
 145 C  ( 0.000000,  0.000000, -0.000222)
 146 C  ( 0.000000,  0.000000, -0.000019)
 147 C  ( 0.000000,  0.000000, -0.000008)
 148 C  ( 0.000000,  0.000000,  0.000007)
 149 C  ( 0.000000,  0.000000,  0.000106)
 150 C  ( 0.000000,  0.000000,  0.000622)
 151 C  ( 0.000000,  0.000000,  0.000049)
 152 C  ( 0.000000,  0.000000, -0.000009)
 153 C  ( 0.000000,  0.000000, -0.000019)
 154 C  ( 0.000000,  0.000000, -0.000082)
 155 C  ( 0.000000,  0.000000, -0.000093)
 156 C  ( 0.000000,  0.000000, -0.000001)
 157 C  ( 0.000000,  0.000000,  0.000040)
 158 C  ( 0.000000,  0.000000, -0.000255)
 159 C  ( 0.000000,  0.000000,  0.000491)
 160 C  ( 0.000000,  0.000000, -0.000309)
 161 C  ( 0.000000,  0.000000,  0.000031)
 162 C  ( 0.000000,  0.000000,  0.000003)
 163 C  ( 0.000000,  0.000000, -0.000008)
 164 C  ( 0.000000,  0.000000,  0.000006)
 165 C  ( 0.000000,  0.000000,  0.000195)
 166 C  ( 0.000000,  0.000000,  0.000098)
 167 C  ( 0.000000,  0.000000, -0.000099)
 168 C  ( 0.000000,  0.000000, -0.003188)
 169 C  ( 0.000000,  0.000000, -0.000019)
 170 C  ( 0.000000,  0.000000,  0.000470)
 171 C  ( 0.000000,  0.000000, -0.000009)
 172 C  ( 0.000000,  0.000000,  0.000676)
 173 C  ( 0.000000,  0.000000,  0.000106)
 174 C  ( 0.000000,  0.000000,  0.000853)
 175 C  ( 0.000000,  0.000000,  0.000014)
 176 C  ( 0.000000,  0.000000,  0.000823)
 177 C  ( 0.000000,  0.000000, -0.005928)
 178 C  ( 0.000000,  0.000000, -0.000836)
 179 C  ( 0.000000,  0.000000, -0.000712)
 180 C  ( 0.000000,  0.000000,  0.011739)
 181 C  ( 0.000000,  0.000000,  0.009240)
 182 C  ( 0.000000,  0.000000,  0.156614)
 183 C  ( 0.000000,  0.000000,  0.008543)
 184 C  ( 0.000000,  0.000000,  0.000307)
 185 C  ( 0.000000,  0.000000,  0.012295)
 186 C  ( 0.000000,  0.000000, -0.001135)
 187 C  ( 0.000000,  0.000000,  0.000202)
 188 C  ( 0.000000,  0.000000, -0.000002)
 189 C  ( 0.000000,  0.000000, -0.002048)
 190 C  ( 0.000000,  0.000000, -0.004291)
 191 C  ( 0.000000,  0.000000,  0.001264)
 192 C  ( 0.000000,  0.000000,  0.000662)
 193 C  ( 0.000000,  0.000000, -0.000046)
 194 C  ( 0.000000,  0.000000,  0.000009)
 195 C  ( 0.000000,  0.000000, -0.000046)
 196 C  ( 0.000000,  0.000000,  0.000009)
 197 C  ( 0.000000,  0.000000, -0.000388)
 198 C  ( 0.000000,  0.000000,  0.000009)
 199 C  ( 0.000000,  0.000000, -0.000045)
 200 C  ( 0.000000,  0.000000, -0.000587)
 201 C  ( 0.000000,  0.000000, -0.009407)
 202 C  ( 0.000000,  0.000000, -0.000481)
 203 C  ( 0.000000,  0.000000, -0.009407)
 204 C  ( 0.000000,  0.000000,  0.002605)
 205 C  ( 0.000000,  0.000000,  0.003272)
 206 C  ( 0.000000,  0.000000,  0.002605)
 207 C  ( 0.000000,  0.000000, -0.000035)
 208 C  ( 0.000000,  0.000000,  0.000909)
 209 C  ( 0.000000,  0.000000, -0.001428)
 210 C  ( 0.000000,  0.000000,  0.000909)
 211 C  ( 0.000000,  0.000000, -0.000073)
 212 N  ( 0.000000,  0.000000, -0.003392)
 213 C  ( 0.000000,  0.000000, -0.000073)
 214 C  ( 0.000000,  0.000000, -0.000276)

Energy contributions relative to reference atoms: (reference = -221394.138216)

Kinetic:       +1742.928950
Potential:     -1572.197698
External:        +0.000000
XC:            -2330.854036
Entropy (-ST):   +0.000000
Local:           +2.846631
SIC:             +0.000000
--------------------------
Free energy:   -2157.276154
Extrapolated:  -2157.276154

HYB_GGA_XC_HSE06 + 0.25 * EXX(omega = 0.11 bohr^-1)
Short-range Coulomb: erfc(omega*r)/r (omega = 0.11 bohr^-1)
Spin contamination: 1.056021 electrons
                   Up                     Down
 Band  Eigenvalues  Occupancy  Eigenvalues  Occupancy
    0    -12.12285    1.00000    -12.12418    1.00000
    1    -11.21751    1.00000    -11.21873    1.00000
    2    -11.02150    1.00000    -11.02295    1.00000
    3    -11.02048    1.00000    -11.02085    1.00000
    4    -10.98043    1.00000    -10.99057    1.00000
    5    -10.96589    1.00000    -10.96155    1.00000
    6    -10.87629    1.00000    -10.87613    1.00000
    7    -10.29699    1.00000    -10.29881    1.00000
    8     -9.92599    1.00000     -9.92794    1.00000
    9     -9.92254    1.00000     -9.92280    1.00000
   10     -9.92039    1.00000     -9.92164    1.00000
   11     -9.91278    1.00000     -9.91238    1.00000
   12     -9.90292    1.00000     -9.90476    1.00000
   13     -9.88074    1.00000     -9.89349    1.00000
   14     -9.86696    1.00000     -9.86491    1.00000
   15     -9.86191    1.00000     -9.86227    1.00000
   16     -9.81650    1.00000     -9.82991    1.00000
   17     -9.79650    1.00000     -9.78348    1.00000
   18     -9.61536    1.00000     -9.61476    1.00000
   19     -9.07812    1.00000     -9.07971    1.00000
   20     -8.80310    1.00000     -8.81271    1.00000
   21     -8.80188    1.00000     -8.80282    1.00000
   22     -8.78490    1.00000     -8.78598    1.00000
   23     -8.77588    1.00000     -8.78252    1.00000
   24     -8.76457    1.00000     -8.76819    1.00000
   25     -8.75538    1.00000     -8.74440    1.00000
   26     -8.58231    1.00000     -8.58132    1.00000
   27     -7.91607    1.00000     -7.92044    1.00000
   28     -7.71437    1.00000     -7.71603    1.00000
   29     -7.70720    1.00000     -7.70684    1.00000
   30     -7.68494    1.00000     -7.69437    1.00000
   31     -7.68418    1.00000     -7.67881    1.00000
   32     -7.62253    1.00000     -7.62245    1.00000
   33     -7.26497    1.00000     -7.26904    1.00000
   34     -6.73893    1.00000     -6.74284    1.00000
   35     -6.73552    1.00000     -6.73878    1.00000
   36     -6.72697    1.00000     -6.72826    1.00000
   37     -6.72489    1.00000     -6.72725    1.00000
   38     -6.72155    1.00000     -6.72139    1.00000
   39     -6.71232    1.00000     -6.71182    1.00000
   40     -6.71135    1.00000     -6.71159    1.00000
   41     -6.70351    1.00000     -6.70295    1.00000
   42     -6.69792    1.00000     -6.69895    1.00000
   43     -6.69233    1.00000     -6.69481    1.00000
   44     -6.68889    1.00000     -6.69180    1.00000
   45     -6.68358    1.00000     -6.68298    1.00000
   46     -6.67979    1.00000     -6.68226    1.00000
   47     -6.67526    1.00000     -6.67393    1.00000
   48     -6.65525    1.00000     -6.66625    1.00000
   49     -6.64815    1.00000     -6.64865    1.00000
   50     -6.63988    1.00000     -6.64756    1.00000
   51     -6.63484    1.00000     -6.62900    1.00000
   52     -6.62366    1.00000     -6.62009    1.00000
   53     -6.60901    1.00000     -6.60860    1.00000
   54     -6.53222    1.00000     -6.55507    1.00000
   55     -6.52771    1.00000     -6.50443    1.00000
   56     -6.34667    1.00000     -6.34689    1.00000
   57     -6.13616    1.00000     -6.13734    1.00000
   58     -5.89875    1.00000     -5.89884    1.00000
   59     -5.88622    1.00000     -5.88811    1.00000
   60     -5.86315    1.00000     -5.86521    1.00000
   61     -5.86076    1.00000     -5.86253    1.00000
   62     -5.85648    1.00000     -5.85995    1.00000
   63     -5.84539    1.00000     -5.85623    1.00000
   64     -5.84414    1.00000     -5.84495    1.00000
   65     -5.84002    1.00000     -5.84199    1.00000
   66     -5.83969    1.00000     -5.83881    1.00000
   67     -5.82684    1.00000     -5.82655    1.00000
   68     -5.82058    1.00000     -5.81722    1.00000
   69     -5.80570    1.00000     -5.80797    1.00000
   70     -5.80419    1.00000     -5.80399    1.00000
   71     -5.79976    1.00000     -5.80345    1.00000
   72     -5.78073    1.00000     -5.77951    1.00000
   73     -5.77406    1.00000     -5.77418    1.00000
   74     -5.75520    1.00000     -5.75525    1.00000
   75     -5.73924    1.00000     -5.74630    1.00000
   76     -5.71893    1.00000     -5.70716    1.00000
   77     -5.69190    1.00000     -5.69029    1.00000
   78     -5.56321    1.00000     -5.62263    1.00000
   79     -5.54322    1.00000     -5.48419    1.00000
   80     -4.81243    1.00000     -4.81016    1.00000
   81     -4.19230    1.00000     -4.19350    1.00000
   82     -4.01612    1.00000     -4.01486    1.00000
   83     -4.01096    1.00000     -4.01405    1.00000
   84     -3.98028    1.00000     -3.98280    1.00000
   85     -3.97709    1.00000     -3.98235    1.00000
   86     -3.96288    1.00000     -3.96291    1.00000
   87     -3.96078    1.00000     -3.95906    1.00000
   88     -3.95866    1.00000     -3.95892    1.00000
   89     -3.94891    1.00000     -3.94791    1.00000
   90     -3.88951    1.00000     -3.91802    1.00000
   91     -3.88771    1.00000     -3.86001    1.00000
   92     -3.48160    1.00000     -3.47952    1.00000
   93     -2.62119    1.00000     -2.62458    1.00000
   94     -2.57097    1.00000     -2.57023    1.00000
   95     -2.56244    1.00000     -2.56443    1.00000
   96     -2.54734    1.00000     -2.54682    1.00000
   97     -2.53729    1.00000     -2.53975    1.00000
   98     -2.49949    1.00000     -2.49910    1.00000
   99     -2.24926    1.00000     -2.25323    1.00000
  100     -2.07355    1.00000     -2.07379    1.00000
  101     -2.04930    1.00000     -2.05109    1.00000
  102     -2.02534    1.00000     -2.02542    1.00000
  103     -2.02038    1.00000     -2.02182    1.00000
  104     -2.01356    1.00000     -2.01401    1.00000
  105     -2.01288    1.00000     -2.01352    1.00000
  106     -2.00682    1.00000     -2.01077    1.00000
  107     -2.00369    1.00000     -2.00567    1.00000
  108     -2.00048    1.00000     -2.00097    1.00000
  109     -1.99199    1.00000     -1.99337    1.00000
  110     -1.98189    1.00000     -1.98198    1.00000
  111     -1.97320    1.00000     -1.97125    1.00000
  112     -1.96711    1.00000     -1.96730    1.00000
  113     -1.95577    1.00000     -1.96233    1.00000
  114     -1.91238    1.00000     -1.91306    1.00000
  115     -1.90358    1.00000     -1.89987    1.00000
  116     -1.89691    1.00000     -1.89672    1.00000
  117     -1.87860    1.00000     -1.88167    1.00000
  118     -1.87477    1.00000     -1.87534    1.00000
  119     -1.84282    1.00000     -1.86460    1.00000
  120     -1.83005    1.00000     -1.83667    1.00000
  121     -1.82227    1.00000     -1.80694    1.00000
  122     -1.76567    1.00000     -1.76642    1.00000
  123     -1.73750    1.00000     -1.73774    1.00000
  124     -1.73601    1.00000     -1.73664    1.00000
  125     -1.72819    1.00000     -1.72815    1.00000
  126     -1.71066    1.00000     -1.71259    1.00000
  127     -1.70970    1.00000     -1.71108    1.00000
  128     -1.70820    1.00000     -1.70964    1.00000
  129     -1.70553    1.00000     -1.70437    1.00000
  130     -1.69925    1.00000     -1.69959    1.00000
  131     -1.69400    1.00000     -1.69539    1.00000
  132     -1.68693    1.00000     -1.69208    1.00000
  133     -1.67730    1.00000     -1.67494    1.00000
  134     -1.67202    1.00000     -1.67425    1.00000
  135     -1.65293    1.00000     -1.66185    1.00000
  136     -1.64741    1.00000     -1.65302    1.00000
  137     -1.64306    1.00000     -1.64851    1.00000
  138     -1.63991    1.00000     -1.63702    1.00000
  139     -1.62761    1.00000     -1.63520    1.00000
  140     -1.62741    1.00000     -1.62434    1.00000
  141     -1.62094    1.00000     -1.61089    1.00000
  142     -1.59614    1.00000     -1.57039    1.00000
  143     -1.38019    1.00000     -1.37789    1.00000
  144     -1.25598    1.00000     -1.27841    1.00000
  145     -1.23211    1.00000     -1.21020    1.00000
  146     -0.84575    1.00000     -0.84612    1.00000
  147     -0.56941    1.00000     -0.57515    1.00000
  148     -0.56657    1.00000     -0.56752    1.00000
  149     -0.56312    1.00000     -0.56147    1.00000
  150     -0.52321    1.00000     -0.52389    1.00000
  151     -0.52146    1.00000     -0.52250    1.00000
  152     -0.51794    1.00000     -0.52001    1.00000
  153     -0.50781    1.00000     -0.50588    1.00000
  154     -0.48611    1.00000     -0.48524    1.00000
  155     -0.48557    1.00000     -0.48488    1.00000
  156     -0.33057    1.00000     -0.35910    1.00000
  157     -0.30927    1.00000     -0.27140    1.00000
  158      0.75440    1.00000      0.75141    1.00000
  159      1.18011    1.00000      1.17742    1.00000
  160      1.18491    1.00000      1.17895    1.00000
  161      1.18511    1.00000      1.18845    1.00000
  162      1.24644    1.00000      1.24300    1.00000
  163      1.26111    1.00000      1.25922    1.00000
  164      1.27018    1.00000      1.26548    1.00000
  165      1.27261    1.00000      1.27070    1.00000
  166      1.27326    1.00000      1.27487    1.00000
  167      1.27605    1.00000      1.27576    1.00000
  168      1.27835    1.00000      1.28048    1.00000
  169      1.28741    1.00000      1.28703    1.00000
  170      1.29190    1.00000      1.28885    1.00000
  171      1.30366    1.00000      1.30437    1.00000
  172      1.30508    1.00000      1.30581    1.00000
  173      1.31732    1.00000      1.31713    1.00000
  174      1.33611    1.00000      1.33651    1.00000
  175      1.44490    1.00000      1.44479    1.00000
  176      1.45479    1.00000      1.45093    1.00000
  177      1.46023    1.00000      1.46080    1.00000
  178      1.47266    1.00000      1.47316    1.00000
  179      1.82775    1.00000      1.82861    1.00000
  180      1.83941    1.00000      1.83587    1.00000
  181      1.86473    1.00000      1.85856    1.00000
  182      1.92823    1.00000      1.92467    1.00000
  183      1.93026    1.00000      1.92826    1.00000
  184      1.93181    1.00000      1.92943    1.00000
  185      1.93755    1.00000      1.93607    1.00000
  186      1.93994    1.00000      1.93748    1.00000
  187      1.94450    1.00000      1.94605    1.00000
  188      1.95027    1.00000      1.94608    1.00000
  189      1.95283    1.00000      1.95263    1.00000
  190      1.95631    1.00000      1.95576    1.00000
  191      1.95665    1.00000      1.95802    1.00000
  192      1.96442    1.00000      1.96755    1.00000
  193      1.97107    1.00000      1.96852    1.00000
  194      1.98417    1.00000      1.98251    1.00000
  195      1.98728    1.00000      1.98427    1.00000
  196      1.98990    1.00000      1.99346    1.00000
  197      2.00032    1.00000      2.00392    1.00000
  198      2.01737    1.00000      2.01914    1.00000
  199      2.01757    1.00000      2.02212    1.00000
  200      2.24523    1.00000      2.22035    1.00000
  201      2.27622    1.00000      2.30723    1.00000
  202      2.88638    1.00000      2.88513    1.00000
  203      2.89274    1.00000      2.88695    1.00000
  204      2.89660    1.00000      2.89418    1.00000
  205      2.95209    1.00000      2.95047    1.00000
  206      2.95860    1.00000      2.95748    1.00000
  207      2.95911    1.00000      2.95868    1.00000
  208      2.96368    1.00000      2.96423    1.00000
  209      2.96776    1.00000      2.96626    1.00000
  210      2.97212    1.00000      2.97230    1.00000
  211      2.97594    1.00000      2.97519    1.00000
  212      2.98763    1.00000      2.98695    1.00000
  213      2.99212    1.00000      2.99199    1.00000
  214      2.99775    1.00000      2.99843    1.00000
  215      3.00797    1.00000      3.00609    1.00000
  216      3.04470    1.00000      3.04358    1.00000
  217      3.06541    1.00000      3.06686    1.00000
  218      3.06928    1.00000      3.07025    1.00000
  219      3.08161    1.00000      3.07980    1.00000
  220      3.08434    1.00000      3.08301    1.00000
  221      3.11895    1.00000      3.10973    1.00000
  222      3.13017    1.00000      3.13645    1.00000
  223      3.17987    1.00000      3.18015    1.00000
  224      3.20578    1.00000      3.19912    1.00000
  225      3.21411    1.00000      3.21181    1.00000
  226      3.26777    1.00000      3.26785    1.00000
  227      3.43320    1.00000      3.43279    1.00000
  228      3.43790    1.00000      3.43691    1.00000
  229      3.49613    1.00000      3.49225    1.00000
  230      3.53764    1.00000      3.53373    1.00000
  231      3.53887    1.00000      3.53513    1.00000
  232      3.54373    1.00000      3.53960    1.00000
  233      3.54508    1.00000      3.54368    1.00000
  234      3.56262    1.00000      3.56323    1.00000
  235      3.56563    1.00000      3.56432    1.00000
  236      3.56702    1.00000      3.56806    1.00000
  237      3.57412    1.00000      3.57657    1.00000
  238      3.58305    1.00000      3.57843    1.00000
  239      3.58777    1.00000      3.58682    1.00000
  240      3.59004    1.00000      3.58741    1.00000
  241      3.59363    1.00000      3.58983    1.00000
  242      3.59453    1.00000      3.59560    1.00000
  243      3.60659    1.00000      3.60743    1.00000
  244      3.61050    1.00000      3.61321    1.00000
  245      3.61575    1.00000      3.61670    1.00000
  246      3.62389    1.00000      3.62379    1.00000
  247      3.62973    1.00000      3.62974    1.00000
  248      3.63124    1.00000      3.63707    1.00000
  249      3.64778    1.00000      3.64663    1.00000
  250      3.65020    1.00000      3.65213    1.00000
  251      3.67458    1.00000      3.68016    1.00000
  252      3.69365    1.00000      3.69514    1.00000
  253      4.02907    1.00000      4.02566    1.00000
  254      4.07611    1.00000      4.06285    1.00000
  255      4.10530    1.00000      4.11517    1.00000
  256      4.61653    1.00000      4.62005    1.00000
  257      4.62892    1.00000      4.62402    1.00000
  258      4.68286    1.00000      4.68090    1.00000
  259      4.69963    1.00000      4.69907    1.00000
  260      4.72134    1.00000      4.71454    1.00000
  261      4.72820    1.00000      4.73118    1.00000
  262      4.85401    1.00000      4.85278    1.00000
  263      5.20781    1.00000      5.20040    1.00000
  264      5.21525    1.00000      5.21945    1.00000
  265      5.28273    1.00000      5.27885    1.00000
  266      5.29023    1.00000      5.28992    1.00000
  267      5.29469    1.00000      5.29633    1.00000
  268      5.30454    1.00000      5.30309    1.00000
  269      5.31264    1.00000      5.31018    1.00000
  270      5.31384    1.00000      5.31674    1.00000
  271      5.34380    1.00000      5.34056    1.00000
  272      5.39777    1.00000      5.40419    1.00000
  273      5.41738    1.00000      5.41200    1.00000
  274      5.59629    1.00000      5.59759    1.00000
  275      5.60890    1.00000      5.60546    1.00000
  276      5.71643    1.00000      5.71296    1.00000
  277      5.74368    1.00000      5.73883    1.00000
  278      5.74992    1.00000      5.74806    1.00000
  279      5.75631    1.00000      5.75227    1.00000
  280      5.75785    1.00000      5.75751    1.00000
  281      5.76544    1.00000      5.76261    1.00000
  282      5.77087    1.00000      5.76778    1.00000
  283      5.79471    1.00000      5.79556    1.00000
  284      5.82447    1.00000      5.82690    1.00000
  285      5.82562    1.00000      5.83219    1.00000
  286      5.83742    1.00000      5.83379    1.00000
  287      5.96631    1.00000      5.95972    1.00000
  288      6.00752    1.00000      6.00606    1.00000
  289      6.01355    1.00000      6.01331    1.00000
  290      6.03899    1.00000      6.03843    1.00000
  291      6.04381    1.00000      6.04245    1.00000
  292      6.04429    1.00000      6.04405    1.00000
  293      6.05669    1.00000      6.05585    1.00000
  294      6.05866    1.00000      6.05726    1.00000
  295      6.06141    1.00000      6.05990    1.00000
  296      6.06601    1.00000      6.06520    1.00000
  297      6.07258    1.00000      6.07149    1.00000
  298      6.07383    1.00000      6.07481    1.00000
  299      6.07784    1.00000      6.07750    1.00000
  300      6.07851    1.00000      6.07767    1.00000
  301      6.09211    1.00000      6.09138    1.00000
  302      6.11082    1.00000      6.11128    1.00000
  303      6.11561    1.00000      6.11224    1.00000
  304      6.12991    1.00000      6.13104    1.00000
  305      6.13629    1.00000      6.13142    1.00000
  306      6.14101    1.00000      6.13988    1.00000
  307      6.14107    1.00000      6.14496    1.00000
  308      6.14643    1.00000      6.14656    1.00000
  309      6.15447    1.00000      6.14802    1.00000
  310      6.20513    1.00000      6.19973    1.00000
  311      6.21954    1.00000      6.22340    1.00000
  312      6.24421    1.00000      6.24500    1.00000
  313      6.27698    1.00000      6.27667    1.00000
  314      6.28174    1.00000      6.27742    1.00000
  315      6.28261    1.00000      6.28052    1.00000
  316      6.28646    1.00000      6.28190    1.00000
  317      6.28712    1.00000      6.28643    1.00000
  318      6.29101    1.00000      6.28930    1.00000
  319      6.29129    1.00000      6.28982    1.00000
  320      6.29691    1.00000      6.29550    1.00000
  321      6.29925    1.00000      6.29679    1.00000
  322      6.30032    1.00000      6.30145    1.00000
  323      6.30516    1.00000      6.30414    1.00000
  324      6.31161    1.00000      6.31155    1.00000
  325      6.31939    1.00000      6.31956    1.00000
  326      6.32306    1.00000      6.32236    1.00000
  327      6.32511    1.00000      6.32390    1.00000
  328      6.32882    1.00000      6.32822    1.00000
  329      6.32906    1.00000      6.33042    1.00000
  330      6.33703    1.00000      6.33628    1.00000
  331      6.33892    1.00000      6.33774    1.00000
  332      6.34000    1.00000      6.33787    1.00000
  333      6.35123    1.00000      6.35059    1.00000
  334      6.35369    1.00000      6.35528    1.00000
  335      6.36111    1.00000      6.35870    1.00000
  336      6.36274    1.00000      6.36498    1.00000
  337      6.36927    1.00000      6.36810    1.00000
  338      6.37286    1.00000      6.37399    1.00000
  339      6.37936    1.00000      6.38967    1.00000
  340      6.39079    1.00000      6.39292    1.00000
  341      6.39475    1.00000      6.39443    1.00000
  342      6.40405    1.00000      6.39513    1.00000
  343      6.40658    1.00000      6.41222    1.00000
  344      6.42173    1.00000      6.41966    1.00000
  345      6.43742    1.00000      6.43988    1.00000
  346      6.44444    1.00000      6.44066    1.00000
  347      6.45170    1.00000      6.45134    1.00000
  348      6.47793    1.00000      6.48391    1.00000
  349      6.49276    1.00000      6.48829    1.00000
  350      6.50306    1.00000      6.50096    1.00000
  351      6.51215    1.00000      6.50108    1.00000
  352      6.51621    1.00000      6.53665    1.00000
  353      6.61178    1.00000      6.61546    1.00000
  354      6.64269    1.00000      6.65550    1.00000
  355      6.91392    1.00000      6.90778    1.00000
  356      6.91926    1.00000      6.92473    1.00000
  357      6.93910    1.00000      6.93591    1.00000
  358      7.10688    1.00000      7.10655    1.00000
  359      7.11714    1.00000      7.11627    1.00000
  360      7.17284    1.00000      7.17238    1.00000
  361      7.18006    1.00000      7.17801    1.00000
  362      7.18018    1.00000      7.18097    1.00000
  363      7.18684    1.00000      7.18644    1.00000
  364      7.20308    1.00000      7.19915    1.00000
  365      7.20965    1.00000      7.20223    1.00000
  366      7.22325    1.00000      7.22453    1.00000
  367      7.23103    1.00000      7.23029    1.00000
  368      7.23481    1.00000      7.23588    1.00000
  369      7.24465    1.00000      7.24257    1.00000
  370      7.25385    1.00000      7.24586    1.00000
  371      7.25633    1.00000      7.25669    1.00000
  372      7.26485    1.00000      7.26938    1.00000
  373      7.28013    1.00000      7.28470    1.00000
  374      7.28028    1.00000      7.28820    1.00000
  375      7.28923    1.00000      7.29967    1.00000
  376      7.34116    1.00000      7.32237    1.00000
  377      7.34308    1.00000      7.36705    1.00000
  378      7.41213    1.00000      7.42322    1.00000
  379      8.10084    1.00000      8.09675    1.00000
  380      8.27869    1.00000      8.23699    1.00000
  381      8.32379    1.00000      8.34282    1.00000
  382      8.66342    1.00000      8.65957    1.00000
  383      8.72708    1.00000      8.73555    1.00000
  384      8.74462    1.00000      8.73850    1.00000
  385      8.78051    1.00000      8.77946    1.00000
  386      8.78511    1.00000      8.78193    1.00000
  387      8.79193    1.00000      8.79169    1.00000
  388      8.80308    1.00000      8.80553    1.00000
  389      8.80932    1.00000      8.80870    1.00000
  390      8.82045    1.00000      8.82407    1.00000
  391      8.82665    1.00000      8.82678    1.00000
  392      8.87199    1.00000      8.87508    1.00000
  393      8.88833    1.00000      8.88603    1.00000
  394      8.89154    1.00000      8.89263    1.00000
  395      8.96595    1.00000      8.96514    1.00000
  396      8.98045    1.00000      8.98062    1.00000
  397      9.03049    1.00000      9.02586    1.00000
  398      9.03104    1.00000      9.02942    1.00000
  399      9.03277    1.00000      9.03033    1.00000
  400      9.03968    1.00000      9.03948    1.00000
  401      9.05031    1.00000      9.04865    1.00000
  402      9.05042    1.00000      9.04887    1.00000
  403      9.05732    1.00000      9.05757    1.00000
  404      9.06561    1.00000      9.07117    1.00000
  405      9.08116    1.00000      9.08088    1.00000
  406      9.09169    1.00000      9.08839    1.00000
  407      9.09555    1.00000      9.09534    1.00000
  408      9.11711    1.00000      9.12068    1.00000
  409      9.13049    1.00000      9.13097    1.00000
  410      9.13695    1.00000      9.14780    1.00000
  411      9.14121    1.00000      9.15179    1.00000
  412      9.15370    1.00000      9.15838    1.00000
  413      9.75330    1.00000      9.75223    1.00000
  414      9.79528    1.00000      9.79100    1.00000
  415      9.81896    1.00000      9.82486    1.00000
  416     10.03599    1.00000     10.03314    1.00000
  417     10.04462    1.00000     10.04317    1.00000
  418     10.05664    1.00000     10.05707    1.00000
  419     10.07762    1.00000     10.07964    1.00000
  420     10.08706    1.00000     10.08616    1.00000
  421     10.08783    1.00000     10.08995    1.00000
  422     10.11788    1.00000     10.12348    1.00000
  423     10.14740    1.00000     10.15358    1.00000
  424     10.16402    1.00000     10.15452    1.00000
  425     10.19248    1.00000     10.19801    1.00000
  426     11.36045    1.00000     11.30872    1.00000
  427     11.44064    1.00000     11.47824    1.00000
  428     11.49735    1.00000     11.47918    1.00000
  429     12.38276    1.00000     12.26672    1.00000
  430     13.83427    1.00000     13.87583    1.00000
  431     16.46757    0.00000     16.57490    0.00000
  432     19.04556    0.00000     19.04222    0.00000
  433     19.05645    0.00000     19.05608    0.00000
  434     19.06526    0.00000     19.06582    0.00000
  435     19.07273    0.00000     19.06985    0.00000
  436     19.07501    0.00000     19.07821    0.00000
  437     19.11240    0.00000     19.11076    0.00000
  438     19.23903    0.00000     19.23817    0.00000
  439     19.24239    0.00000     19.24369    0.00000
  440     19.34342    0.00000     19.34953    0.00000
  441     19.36926    0.00000     19.37032    0.00000
  442     19.39943    0.00000     19.38517    0.00000
  443     19.42381    0.00000     19.41993    0.00000

Fermi level: inf

Could not find a gap

Forces in eV/Ang:
  0 C     0.00057    0.00060   -0.00380
  1 C     0.00283    0.00188   -0.00243
  2 C    -0.00087   -0.00084   -0.00424
  3 C     0.00182    0.00286   -0.00245
  4 C     0.00255    0.00136   -0.00088
  5 C     0.00115    0.00118   -0.00469
  6 C     0.00129    0.00262   -0.00085
  7 C    -0.00160   -0.00157   -0.00046
  8 C     0.00223    0.00229   -0.00383
  9 C    -0.00102    0.00106   -0.00132
 10 C     0.00189    0.00196   -0.00251
 11 C     0.00104   -0.00097   -0.00133
 12 C     0.00182   -0.00255   -0.00859
 13 C     0.00211    0.00217   -0.00378
 14 C    -0.00254    0.00178   -0.00856
 15 C    -0.00000    0.00004   -0.00084
 16 C     0.00385    0.00390    0.00450
 17 C     0.00068   -0.00162   -0.00466
 18 C    -0.00399   -0.00399    0.01526
 19 C    -0.00166    0.00074   -0.00468
 20 C    -0.00021   -0.00383   -0.00406
 21 C    -0.00072   -0.00066   -0.00536
 22 C    -0.00388   -0.00018   -0.00404
 23 C    -0.00817   -0.00814   -0.02463
 24 C    -0.00026    0.00063   -0.00112
 25 C    -0.00038    0.00448    0.00115
 26 C    -0.00221   -0.00516    0.00204
 27 C    -0.00063    0.00122    0.00019
 28 C    -0.00192    0.00117    0.00276
 29 C    -0.00258    0.00164    0.00170
 30 C    -0.00677   -0.01098    0.00605
 31 C    -0.00684    0.01855    0.00721
 32 C    -0.00044    0.00341    0.00068
 33 C     0.01082   -0.00199   -0.00075
 34 C    -0.00102    0.00462    0.00050
 35 C     0.00160    0.00503    0.00246
 36 C     0.00651   -0.00307    0.00670
 37 C    -0.00080   -0.00021   -0.00118
 38 C     0.00157    0.00309    0.00062
 39 C    -0.00468   -0.00900   -0.00011
 40 C    -0.01027    0.00716    0.01416
 41 C    -0.00685   -0.00853   -0.00216
 42 C    -0.00005    0.00046   -0.00049
 43 C    -0.00166   -0.00355    0.00295
 44 C    -0.00308    0.00343   -0.00370
 45 C     0.00041    0.00238    0.00195
 46 C    -0.00251    0.00387   -0.00128
 47 C     0.00293   -0.00541    0.00795
 48 C    -0.00236   -0.00024    0.00009
 49 C     0.00215    0.00492   -0.00146
 50 C     0.00115   -0.00043   -0.00307
 51 C    -0.00370   -0.00644    0.00796
 52 C     0.00428    0.01152    0.00459
 53 C     0.00028    0.00147    0.00103
 54 C     0.00304    0.00429   -0.00210
 55 C    -0.00015    0.00085    0.00063
 56 C    -0.01303    0.02635    0.01640
 57 C     0.00325    0.00080   -0.00957
 58 C     0.00206    0.00134   -0.00132
 59 C     0.00138    0.00201   -0.00200
 60 C     0.00071   -0.00883    0.00853
 61 C     0.00563    0.00207    0.00197
 62 C     0.00075   -0.00054    0.00352
 63 C     0.00364    0.00178   -0.00107
 64 C     0.00599   -0.00146    0.00106
 65 C    -0.00153    0.00080   -0.00064
 66 C     0.00140    0.00181   -0.00315
 67 C     0.00023   -0.00074   -0.00364
 68 C     0.00554   -0.00645    0.00329
 69 C    -0.00207    0.00187    0.00241
 70 C     0.00051   -0.00069   -0.00246
 71 C    -0.00405    0.00001    0.00985
 72 C     0.00062   -0.00023   -0.00116
 73 C     0.00121   -0.00058    0.00017
 74 C    -0.00512   -0.00216    0.00200
 75 C     0.00451   -0.00037    0.00117
 76 C    -0.01098   -0.00680    0.00612
 77 C     0.00166   -0.00252    0.00169
 78 C     0.00116   -0.00188    0.00276
 79 C     0.01857   -0.00680    0.00719
 80 C     0.00340   -0.00041    0.00067
 81 C     0.00502    0.00165    0.00246
 82 C     0.00462   -0.00100    0.00053
 83 C    -0.00191    0.01066   -0.00069
 84 C     0.00311    0.00150    0.00062
 85 C    -0.00022   -0.00081   -0.00119
 86 C    -0.00309    0.00658    0.00669
 87 C    -0.00901   -0.00465   -0.00012
 88 C     0.00725   -0.01036    0.01417
 89 C    -0.00355   -0.00164    0.00292
 90 C     0.00047   -0.00005   -0.00050
 91 C    -0.00850   -0.00691   -0.00224
 92 C     0.00395   -0.00252   -0.00133
 93 C     0.00242    0.00038    0.00190
 94 C     0.00345   -0.00303   -0.00372
 95 C    -0.00538    0.00298    0.00794
 96 C    -0.00593   -0.00592    0.00443
 97 C    -0.00288   -0.00637    0.00276
 98 C    -0.00094   -0.00096   -0.01555
 99 C    -0.00637   -0.00285    0.00273
100 C     0.00282    0.00312    0.00081
101 C     0.00222    0.00223    0.00132
102 C     0.00311    0.00281    0.00084
103 C    -0.00630   -0.00632    0.00169
104 C     0.00092    0.00097   -0.00136
105 C    -0.00145    0.01609   -0.00759
106 C    -0.00779   -0.00776    0.01118
107 C     0.01608   -0.00133   -0.00756
108 C    -0.03161    0.01752    0.00337
109 C    -0.00313   -0.00310    0.00587
110 C     0.01740   -0.03160    0.00345
111 C     0.01007    0.01000    0.00678
112 C    -0.02569   -0.02563    0.05129
113 C     0.01914   -0.00177   -0.00108
114 C    -0.05243   -0.05235    0.26873
115 C    -0.00176    0.01920   -0.00107
116 C     0.09174   -0.02872    0.02151
117 C    -0.03839   -0.03832   -0.13081
118 C    -0.02883    0.09178    0.02155
119 C     0.28805    0.28841   -0.57365
120 C    -0.01815   -0.04074    0.01808
121 C     0.00291   -0.00255   -0.00099
122 C     0.01366    0.00185    0.00456
123 C    -0.00031   -0.00220   -0.00172
124 C     0.00002    0.00240    0.00073
125 C    -0.00464   -0.00176   -0.00526
126 C    -0.00156    0.00334    0.00076
127 C    -0.00868    0.00201    0.00092
128 C     0.00854   -0.02120    0.01511
129 C    -0.00835   -0.00027    0.00156
130 C    -0.00518    0.00515   -0.01252
131 C    -0.04528   -0.11208   -0.00265
132 C    -0.28141    0.16078    0.08969
133 C     0.03183    0.04309    0.02742
134 C     0.02481   -0.02205   -0.02118
135 C    -0.05827   -0.02895    0.02785
136 C     0.00038    0.00093    0.00040
137 C    -0.00249    0.00855   -0.01828
138 C    -0.05501    0.02788    0.05231
139 C    -0.00546   -0.15973   -0.00064
140 C    -0.02256   -0.00841   -0.01641
141 C     0.01404   -0.01056    0.03412
142 C    -0.00062   -0.00538    0.00364
143 C     0.01524   -0.00925    0.00340
144 C    -0.00019   -0.00236    0.00003
145 C    -0.00640   -0.00371    0.00794
146 C    -0.00043    0.00122   -0.00307
147 C     0.00490    0.00219   -0.00144
148 C     0.00426    0.00311   -0.00210
149 C     0.00150    0.00031    0.00100
150 C     0.01152    0.00425    0.00453
151 C     0.00084   -0.00012    0.00064
152 C     0.02641   -0.01314    0.01656
153 C     0.00200    0.00136   -0.00197
154 C     0.00132    0.00206   -0.00132
155 C     0.00074    0.00323   -0.00956
156 C    -0.00061    0.00079    0.00355
157 C     0.00204    0.00561    0.00203
158 C    -0.00883    0.00070    0.00855
159 C     0.00173    0.00365   -0.00105
160 C    -0.00146    0.00590    0.00100
161 C    -0.00073    0.00025   -0.00365
162 C     0.00177    0.00141   -0.00313
163 C     0.00080   -0.00155   -0.00068
164 C    -0.00071    0.00054   -0.00246
165 C     0.00189   -0.00209    0.00241
166 C    -0.00642    0.00559    0.00330
167 C     0.00000   -0.00405    0.00989
168 C    -0.04068   -0.01807    0.01806
169 C    -0.00220   -0.00031   -0.00174
170 C     0.00186    0.01364    0.00459
171 C    -0.00254    0.00291   -0.00101
172 C     0.00332   -0.00154    0.00072
173 C    -0.00173   -0.00463   -0.00524
174 C     0.00241   -0.00000    0.00068
175 C     0.00199   -0.00872    0.00096
176 C    -0.02113    0.00849    0.01500
177 C    -0.11184   -0.04531   -0.00275
178 C     0.00521   -0.00523   -0.01267
179 C    -0.00020   -0.00846    0.00152
180 C    -0.02185    0.02469   -0.02112
181 C     0.04308    0.03172    0.02723
182 C     0.16082   -0.28116    0.08967
183 C    -0.02871   -0.05822    0.02760
184 C     0.00091    0.00042    0.00047
185 C    -0.15961   -0.00534   -0.00068
186 C     0.02802   -0.05502    0.05213
187 C     0.00851   -0.00242   -0.01825
188 C    -0.00536   -0.00065    0.00370
189 C    -0.01051    0.01415    0.03416
190 C    -0.00843   -0.02256   -0.01640
191 C    -0.00916    0.01516    0.00342
192 C    -0.00074   -0.00079   -0.01054
193 C     0.00355    0.00280   -0.00280
194 C    -0.00158   -0.00162   -0.00003
195 C     0.00278    0.00355   -0.00283
196 C    -0.00240   -0.00184   -0.00356
197 C    -0.00489   -0.00490    0.00033
198 C    -0.00184   -0.00239   -0.00352
199 C     0.00043    0.00045   -0.00434
200 C    -0.00057   -0.00051   -0.01549
201 C     0.16588    0.01778   -0.00469
202 C     0.00970    0.00976   -0.00044
203 C     0.01791    0.16561   -0.00477
204 C     0.01252    0.00235    0.00681
205 C    -0.00839   -0.00847   -0.01816
206 C     0.00235    0.01243    0.00690
207 C     0.00263    0.00267    0.00004
208 C    -0.01292   -0.02543   -0.00241
209 C     0.02673    0.02669    0.05261
210 C    -0.02537   -0.01300   -0.00240
211 C     0.00408    0.00379   -0.00753
212 N     0.10432    0.10445   -0.09687
213 C     0.00383    0.00406   -0.00756
214 C     0.00749    0.00749   -0.02129

Timing:                                      incl.     excl.
-------------------------------------------------------------------
Density initialized from wave functions:     0.608     0.608   0.0% |
 Symmetrize density:                         0.000     0.000   0.0% |
Forces:                                   3865.837  3865.837  21.5% |--------|
Hamiltonian:                                 1.206     0.012   0.0% |
 Atomic:                                     0.514     0.001   0.0% |
  XC Correction:                             0.513     0.513   0.0% |
 Calculate atomic Hamiltonians:              0.178     0.178   0.0% |
 Communicate:                                0.230     0.230   0.0% |
 Poisson:                                    0.001     0.001   0.0% |
 XC 3D grid:                                 0.271     0.271   0.0% |
PWDescriptor:                                0.012     0.012   0.0% |
Redistribute:                                0.003     0.003   0.0% |
SCF-cycle:                                4726.266     2.364   0.0% |
 Apply H:                                  466.888   466.886   2.6% ||
  HMM T:                                     0.002     0.002   0.0% |
 Density:                                    0.438     0.000   0.0% |
  Atomic density matrices:                   0.018     0.018   0.0% |
  Mix:                                       0.334     0.334   0.0% |
  Multipole moments:                         0.000     0.000   0.0% |
  Pseudo density:                            0.086     0.086   0.0% |
   Symmetrize density:                       0.000     0.000   0.0% |
 Direct Minimisation step:                4254.662     3.845   0.0% |
  Get Search Direction:                      2.585     2.585   0.0% |
  Inner loop:                             4245.858     7.918   0.0% |
   Energy and gradients:                  4218.088     0.015   0.0% |
    Unitary gradients:                       4.362     4.362   0.0% |
    e/g grid calculations:                4213.711     6.839   0.0% |
     Apply H:                             4206.871  4206.855  23.4% |--------|
      HMM T:                                 0.016     0.016   0.0% |
   Unitary matrix:                           2.272     2.272   0.0% |
   Update Kohn-Sham energy:                 17.581     2.526   0.0% |
    Density:                                 3.880     0.000   0.0% |
     Atomic density matrices:                0.161     0.161   0.0% |
     Mix:                                    3.001     3.001   0.0% |
     Multipole moments:                      0.002     0.002   0.0% |
     Pseudo density:                         0.715     0.715   0.0% |
      Symmetrize density:                    0.000     0.000   0.0% |
    Hamiltonian:                            11.175     0.076   0.0% |
     Atomic:                                 4.635     0.016   0.0% |
      XC Correction:                         4.618     4.618   0.0% |
     Calculate atomic Hamiltonians:          1.608     1.608   0.0% |
     Communicate:                            2.073     2.073   0.0% |
     New Kinetic Energy:                     0.374     0.374   0.0% |
     Poisson:                                0.004     0.004   0.0% |
     XC 3D grid:                             2.405     2.405   0.0% |
  Orthonormalize:                            2.374     0.003   0.0% |
   calc_s_matrix:                            0.155     0.155   0.0% |
   inverse-cholesky:                         0.294     0.294   0.0% |
   projections:                              1.699     1.699   0.0% |
   rotate_psi_s:                             0.223     0.223   0.0% |
 Hamiltonian:                                1.244     0.009   0.0% |
  Atomic:                                    0.516     0.001   0.0% |
   XC Correction:                            0.515     0.515   0.0% |
  Calculate atomic Hamiltonians:             0.178     0.178   0.0% |
  Communicate:                               0.231     0.231   0.0% |
  New Kinetic Energy:                        0.042     0.042   0.0% |
  Poisson:                                   0.001     0.001   0.0% |
  XC 3D grid:                                0.268     0.268   0.0% |
 Orthonormalize:                             0.394     0.000   0.0% |
  Orthonormalize:                            0.394     0.001   0.0% |
   calc_s_matrix:                            0.027     0.027   0.0% |
   inverse-cholesky:                         0.049     0.049   0.0% |
   projections:                              0.282     0.282   0.0% |
   rotate_psi_s:                             0.037     0.037   0.0% |
 projections:                                0.275     0.275   0.0% |
Set symmetry:                                0.000     0.000   0.0% |
Other:                                    9366.995  9366.995  52.2% |--------------------|
-------------------------------------------------------------------
Total:                                             17960.927 100.0%

Memory usage: 5.52 GiB
Date: Tue Sep  2 20:13:33 2025
