
  ___ ___ ___ _ _ _  
 |   |   |_  | | | | 
 | | | | | . | | | | 
 |__ |  _|___|_____|  24.6.0
 |___|_|             

User:   ac2uoma125@g03r1n28
Date:   Tue Sep  2 15:14:11 2025
Arch:   x86_64
Pid:    46893
CWD:    /work/home/ac2uoma125/gpaw/hse06_nvcenter_215/spin-purified-forces
Python: 3.12.5
gpaw:   /work/home/ac2uoma125/anaconda3/envs/gpaw2460/lib/python3.12/site-packages/gpaw
_gpaw:  /work/home/ac2uoma125/anaconda3/envs/gpaw2460/lib/python3.12/site-packages/
        _gpaw.cpython-312-x86_64-linux-gnu.so
ase:    /work/home/ac2uoma125/anaconda3/envs/gpaw2460/lib/python3.12/site-packages/ase (version 3.23.0)
numpy:  /work/home/ac2uoma125/anaconda3/envs/gpaw2460/lib/python3.12/site-packages/numpy (version 1.26.4)
scipy:  /work/home/ac2uoma125/anaconda3/envs/gpaw2460/lib/python3.12/site-packages/scipy (version 1.14.1)
libxc:  6.2.2
units:  Angstrom and eV
cores: 64
OpenMP: True
OMP_NUM_THREADS: 1

Reading from _triplet.gpw
Read dipole, energy, forces, free_energy, magmom, magmoms
Reading input parameters:
  charge: -1
  eigensolver: {blocksize: 1,
                converge_unocc: True,
                excited_state: False,
                functional: {'name': 'ks'},
                grad_tol_inner_loop: 0.0005,
                grad_tol_pz_localization: 0.0005,
                linesearch_algo: {'name': 'max-step', 'max_step': 0.2},
                localization_tol: None,
                localizationseed: None,
                localizationtype: None,
                max_step_inner_loop: 0.2,
                maxiter_inner_loop: 6,
                maxiter_pz_localization: 50,
                maxiter_unocc: 333,
                momevery: 10,
                name: etdm-fdpw,
                need_init_orbs: False,
                need_localization: False,
                printinnerloop: False,
                restart_canonical: True,
                restartevery_iloop_notconverged: 3,
                searchdir_algo: {'name': 'l-bfgs', 'memory': 3},
                use_prec: True}
  mixer: {backend: no-mixing}
  mode: {ecut: 600.0,
         name: pw}
  nbands: -12
  occupations: {name: fixed-uniform}
  spinpol: True
  symmetry: off
  xc: HSE06

Initialize ...

species:
  C:
    name: Carbon
    id: 4aa54d4b901d75f77cc0ea3eec22967b
    Z: 6.0
    valence: 4
    core: 2
    charge: 0.0
    file: /work/home/ac2uoma125/anaconda3/envs/gpaw2460/share/gpaw/C.PBE.gz
    compensation charges: {type: gauss,
                           rc: 0.20,
                           lmax: 2}
    cutoffs: {filter: 1.14,
              core: 1.14}
    projectors:
      #              energy  rcut
      - 2s(2.00)   -13.751   0.635
      - 2p(2.00)    -5.284   0.635
      -  s          13.461   0.635
      -  p          21.927   0.635
      -  d           0.000   0.635
  
    # Using partial waves for C as LCAO basis

  N:
    name: Nitrogen
    id: f7500608b86eaa90eef8b1d9a670dc53
    Z: 7.0
    valence: 5
    core: 2
    charge: 0.0
    file: /work/home/ac2uoma125/anaconda3/envs/gpaw2460/share/gpaw/N.PBE.gz
    compensation charges: {type: gauss,
                           rc: 0.18,
                           lmax: 2}
    cutoffs: {filter: 1.11,
              core: 0.96}
    projectors:
      #              energy  rcut
      - 2s(2.00)   -18.583   0.603
      - 2p(3.00)    -7.089   0.529
      -  s           8.629   0.603
      -  p          20.123   0.529
      -  d           0.000   0.577
  
    # Using partial waves for N as LCAO basis

Reference energy: -221394.138216  # eV

Spin-polarized calculation.
Magnetic moment: 2.000000

Convergence criteria:
 Maximum [total energy] change in last 3 cyles: 0.0005 eV / valence electron
 Maximum integral of absolute [dens]ity change: 0.0001 electrons / valence electron
 Maximum integral of absolute [eigenst]ate change: 4e-08 eV^2 / valence electron
 Maximum number of scf [iter]ations: 333
 (Square brackets indicate name in SCF output, whereas a 'c' in
 the SCF output indicates the quantity has converged.)

Symmetries present (total): 1

  ( 1  0  0)
  ( 0  1  0)
  ( 0  0  1)

1 k-point (Gamma)
1 k-point in the irreducible part of the Brillouin zone
       k-points in crystal coordinates                weights
   0:     0.00000000    0.00000000    0.00000000          1/1

Wave functions: Plane wave expansion
  Cutoff energy: 600.000 eV
  Number of coefficients: 40243 (reduced to 20122)
  Pulay-stress correction: 0.000000 eV/Ang^3 (de/decut=0.000000)
  Using FFTW library
  ScaLapack parameters: grid=1x1, blocksize=None
  Wavefunction extrapolation:
    Improved wavefunction reuse through dual PAW basis 

Occupation numbers: # Uniform distribution of occupation numbers 

Eigensolver
   Direct minimisation using exponential transformation.
       Search direction: L-BFGS algorithm
       Line search: step size equals one
       Preconditioning: True
       Orbital-density self-interaction corrections: ks
       WARNING: do not use it for metals as occupation numbers are
                not found variationally
 

Densities:
  Coarse grid: 63*63*63 grid
  Fine grid: 126*126*126 grid
  Total Charge: -1.000000 

Density mixing:
  Method: difference
  Backend: no-mixing
  Linear mixing parameter: 0
  old densities: 0
  Damping of long wavelength oscillations: 0 

Hamiltonian:
  XC and Coulomb potentials evaluated on a 126*126*126 grid
  Using the HSE06 Exchange-Correlation functional
  External potential:
    NoExternalPotential
Poisson solver:
  Uniform background charge: -1.000 electrons
 

XC parameters: HYB_GGA_XC_HSE06 + 0.25 * EXX(omega = 0.11 bohr^-1)

Memory estimate:
  Process memory now: 5651.05 MiB
Attribute error: AttributeError("'HybridXC' object has no attribute 'estimate_memory'")
Some object probably lacks estimate_memory() method
Memory breakdown may be incomplete
  Calculator: 2.74 MiB
    Density: 1.93 MiB
      Arrays: 1.09 MiB
      Localized functions: 0.83 MiB
      Mixer: 0.00 MiB
    Hamiltonian: 0.81 MiB
      Arrays: 0.81 MiB

Total number of cores used: 64
Domain decomposition: 4 x 4 x 4

Number of atoms: 215
Number of atomic orbitals: 860
Number of bands in calculation: 444
Number of valence electrons: 862
Bands to converge: all

... initialized

System changes: positions 

Initializing position-dependent things.

Density initialized from wave functions
        .--------C----------------.  
       /|  C        C             |  
      / | C       C  C C   C      |  
     / C|    C  C    C  C     C   |  
    /  C|C    C CC     C CCC   C  |  
   /    C C C    C C      N CC    |  
  /  C C| CCCCCC  C C C C  C CC   |  
 *    C C   CCCCC    C C C    C C |  
 |C    CCC C  C CCC C  CCCCC   C C|  
 |   C  CCC C    CCC C C  CCCC    C  
 |  C C | CCCC C  C CCC C  CC C   |  
 C   CC C   C C C   CCCC C   CC   |  
 |    CCCC C C CCCCC C CCCC C  C  |  
 |     C.CC-C-C-C-CC-C-C-C-C-C----.  
 |  C C/C C CC   C C CC C C CCC  /   
 |   CC     C CC    C C      C  /    
 |   /C C      CCCC    C C     /     
 |C /    C C      C C      C  /      
 | /CC      C        C C     /       
 |/                         /        
 C----------------C--------*         

Positions:
   0 C      0.002751    0.002746    0.001964    ( 0.0000,  0.0000,  0.0000)
   1 C      0.000007    1.774290    1.774224    ( 0.0000,  0.0000,  0.0000)
   2 C      1.774416    1.774410   -0.000442    ( 0.0000,  0.0000,  0.0000)
   3 C      1.774297    0.000002    1.774224    ( 0.0000,  0.0000,  0.0000)
   4 C      2.660270    0.886103    2.660210    ( 0.0000,  0.0000,  0.0000)
   5 C      0.888090    0.888084    0.887866    ( 0.0000,  0.0000,  0.0000)
   6 C      0.886110    2.660264    2.660209    ( 0.0000,  0.0000,  0.0000)
   7 C      2.660267    2.660262    0.885911    ( 0.0000,  0.0000,  0.0000)
   8 C     -0.001714   -0.001719    3.550384    ( 0.0000,  0.0000,  0.0000)
   9 C     -0.001768    1.771998    5.320320    ( 0.0000,  0.0000,  0.0000)
  10 C      1.772645    1.772637    3.546897    ( 0.0000,  0.0000,  0.0000)
  11 C      1.772000   -0.001773    5.320321    ( 0.0000,  0.0000,  0.0000)
  12 C      2.659501    0.885925    6.206498    ( 0.0000,  0.0000,  0.0000)
  13 C      0.885457    0.885451    4.434613    ( 0.0000,  0.0000,  0.0000)
  14 C      0.885927    2.659503    6.206498    ( 0.0000,  0.0000,  0.0000)
  15 C      2.659510    2.659507    4.432769    ( 0.0000,  0.0000,  0.0000)
  16 C      0.003096    0.003092    7.095823    ( 0.0000,  0.0000,  0.0000)
  17 C      0.000770    1.776970    8.866085    ( 0.0000,  0.0000,  0.0000)
  18 C      1.773031    1.773030    7.092285    ( 0.0000,  0.0000,  0.0000)
  19 C      1.776977    0.000763    8.866085    ( 0.0000,  0.0000,  0.0000)
  20 C      2.662748    0.886438    9.751846    ( 0.0000,  0.0000,  0.0000)
  21 C      0.888932    0.888925    7.979970    ( 0.0000,  0.0000,  0.0000)
  22 C      0.886445    2.662744    9.751845    ( 0.0000,  0.0000,  0.0000)
  23 C      2.657925    2.657922    7.977950    ( 0.0000,  0.0000,  0.0000)
  24 C     -0.001246    3.550174   -0.002294    ( 0.0000,  0.0000,  0.0000)
  25 C     -0.000263    5.320211    1.772062    ( 0.0000,  0.0000,  0.0000)
  26 C      1.771591    5.320658   -0.002093    ( 0.0000,  0.0000,  0.0000)
  27 C      1.772773    3.546905    1.772467    ( 0.0000,  0.0000,  0.0000)
  28 C      2.659307    4.433061    2.659369    ( 0.0000,  0.0000,  0.0000)
  29 C      0.885803    4.434467    0.884985    ( 0.0000,  0.0000,  0.0000)
  30 C      0.887809    6.207484    2.657799    ( 0.0000,  0.0000,  0.0000)
  31 C      2.657407    6.206950    0.886686    ( 0.0000,  0.0000,  0.0000)
  32 C     -0.001352    3.546734    3.546573    ( 0.0000,  0.0000,  0.0000)
  33 C     -0.003770    5.321505    5.318428    ( 0.0000,  0.0000,  0.0000)
  34 C      1.772416    5.319451    3.546058    ( 0.0000,  0.0000,  0.0000)
  35 C      1.771978    3.546495    5.318637    ( 0.0000,  0.0000,  0.0000)
  36 C      2.658524    4.433389    6.204643    ( 0.0000,  0.0000,  0.0000)
  37 C      0.884886    4.433668    4.432953    ( 0.0000,  0.0000,  0.0000)
  38 C      0.882615    6.207259    6.206119    ( 0.0000,  0.0000,  0.0000)
  39 C      2.658676    6.206529    4.431863    ( 0.0000,  0.0000,  0.0000)
  40 C     -0.001723    3.548406    7.090030    ( 0.0000,  0.0000,  0.0000)
  41 C     -0.011488    5.330903    8.861799    ( 0.0000,  0.0000,  0.0000)
  42 C      1.770990    5.321575    7.091403    ( 0.0000,  0.0000,  0.0000)
  43 C      1.770651    3.549187    8.864750    ( 0.0000,  0.0000,  0.0000)
  44 C      2.658192    4.433740    9.751337    ( 0.0000,  0.0000,  0.0000)
  45 C      0.881019    4.438378    7.976814    ( 0.0000,  0.0000,  0.0000)
  46 C      0.884947    6.209407    9.750986    ( 0.0000,  0.0000,  0.0000)
  47 C      2.660330    6.207241    7.976992    ( 0.0000,  0.0000,  0.0000)
  48 C      0.006476    7.096358    0.005858    ( 0.0000,  0.0000,  0.0000)
  49 C      0.001839    8.867266    1.776107    ( 0.0000,  0.0000,  0.0000)
  50 C      1.776857    8.867556   -0.000018    ( 0.0000,  0.0000,  0.0000)
  51 C      1.773215    7.093520    1.772466    ( 0.0000,  0.0000,  0.0000)
  52 C      2.656995    7.978374    2.657028    ( 0.0000,  0.0000,  0.0000)
  53 C      0.890617    7.980910    0.889166    ( 0.0000,  0.0000,  0.0000)
  54 C      0.886464    9.752496    2.662871    ( 0.0000,  0.0000,  0.0000)
  55 C      2.662652    9.752905    0.885714    ( 0.0000,  0.0000,  0.0000)
  56 C      0.001589    7.091390    3.543769    ( 0.0000,  0.0000,  0.0000)
  57 C     -0.012374    8.862591    5.330189    ( 0.0000,  0.0000,  0.0000)
  58 C      1.770886    8.865758    3.549186    ( 0.0000,  0.0000,  0.0000)
  59 C      1.771360    7.092630    5.320780    ( 0.0000,  0.0000,  0.0000)
  60 C      2.661255    7.978708    6.205541    ( 0.0000,  0.0000,  0.0000)
  61 C      0.881318    7.977848    4.437429    ( 0.0000,  0.0000,  0.0000)
  62 C      0.884196    9.751240    6.208613    ( 0.0000,  0.0000,  0.0000)
  63 C      2.659474    9.751219    4.434109    ( 0.0000,  0.0000,  0.0000)
  64 C     -0.007271    7.094515    7.093126    ( 0.0000,  0.0000,  0.0000)
  65 C      0.006894    8.870459    8.871086    ( 0.0000,  0.0000,  0.0000)
  66 C      1.774206    8.865121    7.092706    ( 0.0000,  0.0000,  0.0000)
  67 C      1.773865    7.093931    8.864251    ( 0.0000,  0.0000,  0.0000)
  68 C      2.662394    7.980098    9.750528    ( 0.0000,  0.0000,  0.0000)
  69 C      0.886506    7.980695    7.979553    ( 0.0000,  0.0000,  0.0000)
  70 C      0.891607    9.755726    9.754676    ( 0.0000,  0.0000,  0.0000)
  71 C      2.663388    9.751592    7.977897    ( 0.0000,  0.0000,  0.0000)
  72 C      3.550177   -0.001251   -0.002293    ( 0.0000,  0.0000,  0.0000)
  73 C      3.546908    1.772767    1.772468    ( 0.0000,  0.0000,  0.0000)
  74 C      5.320655    1.771585   -0.002089    ( 0.0000,  0.0000,  0.0000)
  75 C      5.320209   -0.000266    1.772059    ( 0.0000,  0.0000,  0.0000)
  76 C      6.207481    0.887810    2.657792    ( 0.0000,  0.0000,  0.0000)
  77 C      4.434467    0.885797    0.884985    ( 0.0000,  0.0000,  0.0000)
  78 C      4.433062    2.659303    2.659369    ( 0.0000,  0.0000,  0.0000)
  79 C      6.206948    2.657402    0.886690    ( 0.0000,  0.0000,  0.0000)
  80 C      3.546737   -0.001357    3.546573    ( 0.0000,  0.0000,  0.0000)
  81 C      3.546493    1.771973    5.318636    ( 0.0000,  0.0000,  0.0000)
  82 C      5.319450    1.772413    3.546055    ( 0.0000,  0.0000,  0.0000)
  83 C      5.321499   -0.003760    5.318421    ( 0.0000,  0.0000,  0.0000)
  84 C      6.207255    0.882617    6.206116    ( 0.0000,  0.0000,  0.0000)
  85 C      4.433666    0.884887    4.432950    ( 0.0000,  0.0000,  0.0000)
  86 C      4.433387    2.658516    6.204643    ( 0.0000,  0.0000,  0.0000)
  87 C      6.206526    2.658669    4.431862    ( 0.0000,  0.0000,  0.0000)
  88 C      3.548403   -0.001720    7.090029    ( 0.0000,  0.0000,  0.0000)
  89 C      3.549187    1.770646    8.864752    ( 0.0000,  0.0000,  0.0000)
  90 C      5.321572    1.770984    7.091404    ( 0.0000,  0.0000,  0.0000)
  91 C      5.330900   -0.011486    8.861801    ( 0.0000,  0.0000,  0.0000)
  92 C      6.209403    0.884944    9.750989    ( 0.0000,  0.0000,  0.0000)
  93 C      4.438374    0.881017    7.976816    ( 0.0000,  0.0000,  0.0000)
  94 C      4.433739    2.658185    9.751339    ( 0.0000,  0.0000,  0.0000)
  95 C      6.207237    2.660319    7.976995    ( 0.0000,  0.0000,  0.0000)
  96 C      3.546515    3.546512   -0.001877    ( 0.0000,  0.0000,  0.0000)
  97 C      3.545127    5.319326    1.771654    ( 0.0000,  0.0000,  0.0000)
  98 C      5.318862    5.318859    0.002209    ( 0.0000,  0.0000,  0.0000)
  99 C      5.319326    3.545124    1.771656    ( 0.0000,  0.0000,  0.0000)
 100 C      6.205561    4.431173    2.656520    ( 0.0000,  0.0000,  0.0000)
 101 C      4.432064    4.432062    0.886461    ( 0.0000,  0.0000,  0.0000)
 102 C      4.431172    6.205564    2.656518    ( 0.0000,  0.0000,  0.0000)
 103 C      6.206854    6.206855    0.885899    ( 0.0000,  0.0000,  0.0000)
 104 C      3.546384    3.546381    3.546085    ( 0.0000,  0.0000,  0.0000)
 105 C      3.548767    5.321530    5.319880    ( 0.0000,  0.0000,  0.0000)
 106 C      5.320346    5.320349    3.543295    ( 0.0000,  0.0000,  0.0000)
 107 C      5.321527    3.548756    5.319879    ( 0.0000,  0.0000,  0.0000)
 108 C      6.210358    4.439084    6.203158    ( 0.0000,  0.0000,  0.0000)
 109 C      4.433754    4.433751    4.431555    ( 0.0000,  0.0000,  0.0000)
 110 C      4.439098    6.210366    6.203155    ( 0.0000,  0.0000,  0.0000)
 111 C      6.204351    6.204362    4.428892    ( 0.0000,  0.0000,  0.0000)
 112 C      3.542120    3.542115    7.091264    ( 0.0000,  0.0000,  0.0000)
 113 C      3.544394    5.319586    8.865058    ( 0.0000,  0.0000,  0.0000)
 114 C      5.321427    5.321420    7.090594    ( 0.0000,  0.0000,  0.0000)
 115 C      5.319586    3.544383    8.865061    ( 0.0000,  0.0000,  0.0000)
 116 C      6.207574    4.424767    9.762324    ( 0.0000,  0.0000,  0.0000)
 117 C      4.423685    4.423679    7.976440    ( 0.0000,  0.0000,  0.0000)
 118 C      4.424781    6.207574    9.762315    ( 0.0000,  0.0000,  0.0000)
 119 C      6.107288    6.107266    8.077047    ( 0.0000,  0.0000,  0.0000)
 120 C      3.543550    7.093339    0.002508    ( 0.0000,  0.0000,  0.0000)
 121 C      3.548183    8.866669    1.771275    ( 0.0000,  0.0000,  0.0000)
 122 C      5.328897    8.865565   -0.007633    ( 0.0000,  0.0000,  0.0000)
 123 C      5.320361    7.093051    1.771525    ( 0.0000,  0.0000,  0.0000)
 124 C      6.206634    7.978842    2.658912    ( 0.0000,  0.0000,  0.0000)
 125 C      4.436744    7.979248    0.883131    ( 0.0000,  0.0000,  0.0000)
 126 C      4.433977    9.752063    2.658454    ( 0.0000,  0.0000,  0.0000)
 127 C      6.209173    9.753691    0.886041    ( 0.0000,  0.0000,  0.0000)
 128 C      3.540935    7.093723    3.539584    ( 0.0000,  0.0000,  0.0000)
 129 C      3.548326    8.863331    5.317802    ( 0.0000,  0.0000,  0.0000)
 130 C      5.319275    8.864909    3.544452    ( 0.0000,  0.0000,  0.0000)
 131 C      5.326692    7.100053    5.314910    ( 0.0000,  0.0000,  0.0000)
 132 C      6.174420    7.992202    6.142494    ( 0.0000,  0.0000,  0.0000)
 133 C      4.424800    7.973136    4.421207    ( 0.0000,  0.0000,  0.0000)
 134 C      4.435262    9.750363    6.207815    ( 0.0000,  0.0000,  0.0000)
 135 C      6.210976    9.755452    4.426441    ( 0.0000,  0.0000,  0.0000)
 136 C      3.551956    7.091544    7.090035    ( 0.0000,  0.0000,  0.0000)
 137 C      3.554053    8.862319    8.860425    ( 0.0000,  0.0000,  0.0000)
 138 C      5.346561    8.836679    7.076566    ( 0.0000,  0.0000,  0.0000)
 139 C      5.324512    7.090191    8.863114    ( 0.0000,  0.0000,  0.0000)
 140 C      6.223201    7.974916    9.742738    ( 0.0000,  0.0000,  0.0000)
 141 C      4.444313    7.974034    7.971479    ( 0.0000,  0.0000,  0.0000)
 142 C      4.439176    9.749516    9.748164    ( 0.0000,  0.0000,  0.0000)
 143 C      6.224905    9.732041    7.970610    ( 0.0000,  0.0000,  0.0000)
 144 C      7.096353    0.006475    0.005862    ( 0.0000,  0.0000,  0.0000)
 145 C      7.093517    1.773215    1.772467    ( 0.0000,  0.0000,  0.0000)
 146 C      8.867557    1.776850   -0.000015    ( 0.0000,  0.0000,  0.0000)
 147 C      8.867267    0.001835    1.776106    ( 0.0000,  0.0000,  0.0000)
 148 C      9.752499    0.886459    2.662871    ( 0.0000,  0.0000,  0.0000)
 149 C      7.980909    0.890613    0.889169    ( 0.0000,  0.0000,  0.0000)
 150 C      7.978373    2.656996    2.657032    ( 0.0000,  0.0000,  0.0000)
 151 C      9.752908    2.662648    0.885716    ( 0.0000,  0.0000,  0.0000)
 152 C      7.091386    0.001598    3.543756    ( 0.0000,  0.0000,  0.0000)
 153 C      7.092629    1.771356    5.320777    ( 0.0000,  0.0000,  0.0000)
 154 C      8.865760    1.770885    3.549185    ( 0.0000,  0.0000,  0.0000)
 155 C      8.862592   -0.012371    5.330185    ( 0.0000,  0.0000,  0.0000)
 156 C      9.751246    0.884192    6.208611    ( 0.0000,  0.0000,  0.0000)
 157 C      7.977848    0.881319    4.437423    ( 0.0000,  0.0000,  0.0000)
 158 C      7.978707    2.661247    6.205541    ( 0.0000,  0.0000,  0.0000)
 159 C      9.751221    2.659473    4.434109    ( 0.0000,  0.0000,  0.0000)
 160 C      7.094510   -0.007263    7.093124    ( 0.0000,  0.0000,  0.0000)
 161 C      7.093929    1.773858    8.864254    ( 0.0000,  0.0000,  0.0000)
 162 C      8.865124    1.774200    7.092705    ( 0.0000,  0.0000,  0.0000)
 163 C      8.870458    0.006895    8.871088    ( 0.0000,  0.0000,  0.0000)
 164 C      9.755730    0.891602    9.754678    ( 0.0000,  0.0000,  0.0000)
 165 C      7.980694    0.886505    7.979553    ( 0.0000,  0.0000,  0.0000)
 166 C      7.980097    2.662384    9.750533    ( 0.0000,  0.0000,  0.0000)
 167 C      9.751596    2.663381    7.977898    ( 0.0000,  0.0000,  0.0000)
 168 C      7.093337    3.543539    0.002514    ( 0.0000,  0.0000,  0.0000)
 169 C      7.093049    5.320361    1.771527    ( 0.0000,  0.0000,  0.0000)
 170 C      8.865565    5.328896   -0.007632    ( 0.0000,  0.0000,  0.0000)
 171 C      8.866669    3.548182    1.771278    ( 0.0000,  0.0000,  0.0000)
 172 C      9.752063    4.433978    2.658459    ( 0.0000,  0.0000,  0.0000)
 173 C      7.979247    4.436741    0.883133    ( 0.0000,  0.0000,  0.0000)
 174 C      7.978838    6.206638    2.658915    ( 0.0000,  0.0000,  0.0000)
 175 C      9.753693    6.209176    0.886041    ( 0.0000,  0.0000,  0.0000)
 176 C      7.093717    3.540936    3.539590    ( 0.0000,  0.0000,  0.0000)
 177 C      7.100029    5.326695    5.314919    ( 0.0000,  0.0000,  0.0000)
 178 C      8.864900    5.319279    3.544463    ( 0.0000,  0.0000,  0.0000)
 179 C      8.863325    3.548328    5.317805    ( 0.0000,  0.0000,  0.0000)
 180 C      9.750350    4.435267    6.207820    ( 0.0000,  0.0000,  0.0000)
 181 C      7.973125    4.424806    4.421217    ( 0.0000,  0.0000,  0.0000)
 182 C      7.992172    6.174420    6.142513    ( 0.0000,  0.0000,  0.0000)
 183 C      9.755432    6.210984    4.426459    ( 0.0000,  0.0000,  0.0000)
 184 C      7.091541    3.551942    7.090036    ( 0.0000,  0.0000,  0.0000)
 185 C      7.090189    5.324491    8.863128    ( 0.0000,  0.0000,  0.0000)
 186 C      8.836660    5.346561    7.076581    ( 0.0000,  0.0000,  0.0000)
 187 C      8.862320    3.554041    8.860428    ( 0.0000,  0.0000,  0.0000)
 188 C      9.749517    4.439173    9.748164    ( 0.0000,  0.0000,  0.0000)
 189 C      7.974029    4.444296    7.971488    ( 0.0000,  0.0000,  0.0000)
 190 C      7.974913    6.223199    9.742741    ( 0.0000,  0.0000,  0.0000)
 191 C      9.732030    6.224911    7.970614    ( 0.0000,  0.0000,  0.0000)
 192 C      7.094708    7.094710   -0.000492    ( 0.0000,  0.0000,  0.0000)
 193 C      7.093583    8.866458    1.774065    ( 0.0000,  0.0000,  0.0000)
 194 C      8.872137    8.872140    0.009190    ( 0.0000,  0.0000,  0.0000)
 195 C      8.866458    7.093585    1.774066    ( 0.0000,  0.0000,  0.0000)
 196 C      9.753299    7.980026    2.660969    ( 0.0000,  0.0000,  0.0000)
 197 C      7.981800    7.981802    0.888964    ( 0.0000,  0.0000,  0.0000)
 198 C      7.980024    9.753300    2.660966    ( 0.0000,  0.0000,  0.0000)
 199 C      9.756337    9.756335    0.892026    ( 0.0000,  0.0000,  0.0000)
 200 C      7.091615    7.091622    3.546923    ( 0.0000,  0.0000,  0.0000)
 201 C      7.080283    8.845465    5.325923    ( 0.0000,  0.0000,  0.0000)
 202 C      8.862592    8.862595    3.549390    ( 0.0000,  0.0000,  0.0000)
 203 C      8.845435    7.080301    5.325940    ( 0.0000,  0.0000,  0.0000)
 204 C      9.730734    7.968848    6.221192    ( 0.0000,  0.0000,  0.0000)
 205 C      7.976577    7.976594    4.435143    ( 0.0000,  0.0000,  0.0000)
 206 C      7.968839    9.730747    6.221184    ( 0.0000,  0.0000,  0.0000)
 207 C      9.748437    9.748436    4.438078    ( 0.0000,  0.0000,  0.0000)
 208 C      7.135575    8.865038    8.869964    ( 0.0000,  0.0000,  0.0000)
 209 C      8.855940    8.855951    7.135268    ( 0.0000,  0.0000,  0.0000)
 210 C      8.865029    7.135582    8.869966    ( 0.0000,  0.0000,  0.0000)
 211 C      9.766947    7.984579    9.768428    ( 0.0000,  0.0000,  0.0000)
 212 N      8.055492    8.055499    8.076208    ( 0.0000,  0.0000,  2.0000)
 213 C      7.984574    9.766951    9.768429    ( 0.0000,  0.0000,  0.0000)
 214 C      9.761655    9.761659    7.984445    ( 0.0000,  0.0000,  0.0000)

Unit cell:
           periodic     x           y           z      points  spacing
  1. axis:    yes   10.639295    0.000000    0.000000    63     0.1689
  2. axis:    yes    0.000000   10.639295    0.000000    63     0.1689
  3. axis:    yes    0.000000    0.000000   10.639295    63     0.1689

  Lengths:  10.639295  10.639295  10.639295
  Angles:   90.000000  90.000000  90.000000

Effective grid spacing dv^(1/3) = 0.1689

     iter     time        total  log10-change:  magmom
                         energy   eigst   dens
iter:   1 17:53:15 -2157.525837   -4.80  -4.22c   +2.0000
iter:   2 18:01:08 -2157.525692   -5.59  -4.52c   +2.0000
iter:   3 18:09:01 -2157.525667c  -6.24  -5.14c   +2.0000
iter:   4 18:16:54 -2157.525681c  -6.65  -5.04c   +2.0000
iter:   5 18:24:48 -2157.525657c  -7.08  -5.51c   +2.0000
iter:   6 18:32:41 -2157.525662c  -7.44c -5.95c   +2.0000

Occupied states converged after 7 e/g evaluations
Converge unoccupied states:
                                   wfs    
           time        Energy:     error(ev^2):
iter:   1  18:49:56   33.036037     2.5e-04

Unoccupied orbitals converged after 1 iterations

Converged after 6 iterations.

Dipole moment: (1.193220, 1.193975, -0.416639) |e|*Ang

Total magnetic moment: (0.000000, 0.000000, 2.000000)
Local magnetic moments:
   0 C  ( 0.000000,  0.000000,  0.000003)
   1 C  ( 0.000000,  0.000000,  0.000003)
   2 C  ( 0.000000,  0.000000,  0.000006)
   3 C  ( 0.000000,  0.000000,  0.000003)
   4 C  ( 0.000000,  0.000000,  0.000308)
   5 C  ( 0.000000,  0.000000,  0.000087)
   6 C  ( 0.000000,  0.000000,  0.000308)
   7 C  ( 0.000000,  0.000000,  0.000333)
   8 C  ( 0.000000,  0.000000,  0.000044)
   9 C  ( 0.000000,  0.000000, -0.000077)
  10 C  ( 0.000000,  0.000000, -0.000026)
  11 C  ( 0.000000,  0.000000, -0.000078)
  12 C  ( 0.000000,  0.000000,  0.001183)
  13 C  ( 0.000000,  0.000000,  0.000109)
  14 C  ( 0.000000,  0.000000,  0.001183)
  15 C  ( 0.000000,  0.000000,  0.000086)
  16 C  ( 0.000000,  0.000000,  0.000160)
  17 C  ( 0.000000,  0.000000, -0.000036)
  18 C  ( 0.000000,  0.000000,  0.000991)
  19 C  ( 0.000000,  0.000000, -0.000036)
  20 C  ( 0.000000,  0.000000,  0.000053)
  21 C  ( 0.000000,  0.000000,  0.000175)
  22 C  ( 0.000000,  0.000000,  0.000053)
  23 C  ( 0.000000,  0.000000,  0.001101)
  24 C  ( 0.000000,  0.000000,  0.000052)
  25 C  ( 0.000000,  0.000000, -0.000081)
  26 C  ( 0.000000,  0.000000, -0.000097)
  27 C  ( 0.000000,  0.000000, -0.000022)
  28 C  ( 0.000000,  0.000000,  0.000080)
  29 C  ( 0.000000,  0.000000,  0.000102)
  30 C  ( 0.000000,  0.000000,  0.001181)
  31 C  ( 0.000000,  0.000000,  0.001442)
  32 C  ( 0.000000,  0.000000, -0.000095)
  33 C  ( 0.000000,  0.000000, -0.001094)
  34 C  ( 0.000000,  0.000000, -0.000101)
  35 C  ( 0.000000,  0.000000, -0.000088)
  36 C  ( 0.000000,  0.000000,  0.000069)
  37 C  ( 0.000000,  0.000000,  0.000808)
  38 C  ( 0.000000,  0.000000,  0.000605)
  39 C  ( 0.000000,  0.000000,  0.000133)
  40 C  ( 0.000000,  0.000000,  0.002289)
  41 C  ( 0.000000,  0.000000, -0.000278)
  42 C  ( 0.000000,  0.000000, -0.000128)
  43 C  ( 0.000000,  0.000000, -0.000102)
  44 C  ( 0.000000,  0.000000,  0.000798)
  45 C  ( 0.000000,  0.000000,  0.000113)
  46 C  ( 0.000000,  0.000000,  0.000129)
  47 C  ( 0.000000,  0.000000,  0.001250)
  48 C  ( 0.000000,  0.000000,  0.000103)
  49 C  ( 0.000000,  0.000000, -0.000031)
  50 C  ( 0.000000,  0.000000, -0.000038)
  51 C  ( 0.000000,  0.000000,  0.000935)
  52 C  ( 0.000000,  0.000000,  0.000841)
  53 C  ( 0.000000,  0.000000,  0.000124)
  54 C  ( 0.000000,  0.000000,  0.000056)
  55 C  ( 0.000000,  0.000000,  0.000056)
  56 C  ( 0.000000,  0.000000,  0.001981)
  57 C  ( 0.000000,  0.000000, -0.000202)
  58 C  ( 0.000000,  0.000000, -0.000096)
  59 C  ( 0.000000,  0.000000, -0.000125)
  60 C  ( 0.000000,  0.000000,  0.001102)
  61 C  ( 0.000000,  0.000000,  0.000122)
  62 C  ( 0.000000,  0.000000,  0.000124)
  63 C  ( 0.000000,  0.000000,  0.000841)
  64 C  ( 0.000000,  0.000000, -0.000562)
  65 C  ( 0.000000,  0.000000, -0.000066)
  66 C  ( 0.000000,  0.000000, -0.000118)
  67 C  ( 0.000000,  0.000000, -0.000126)
  68 C  ( 0.000000,  0.000000,  0.000018)
  69 C  ( 0.000000,  0.000000,  0.000583)
  70 C  ( 0.000000,  0.000000,  0.000002)
  71 C  ( 0.000000,  0.000000,  0.000080)
  72 C  ( 0.000000,  0.000000,  0.000052)
  73 C  ( 0.000000,  0.000000, -0.000022)
  74 C  ( 0.000000,  0.000000, -0.000097)
  75 C  ( 0.000000,  0.000000, -0.000081)
  76 C  ( 0.000000,  0.000000,  0.001181)
  77 C  ( 0.000000,  0.000000,  0.000102)
  78 C  ( 0.000000,  0.000000,  0.000080)
  79 C  ( 0.000000,  0.000000,  0.001442)
  80 C  ( 0.000000,  0.000000, -0.000095)
  81 C  ( 0.000000,  0.000000, -0.000088)
  82 C  ( 0.000000,  0.000000, -0.000101)
  83 C  ( 0.000000,  0.000000, -0.001094)
  84 C  ( 0.000000,  0.000000,  0.000605)
  85 C  ( 0.000000,  0.000000,  0.000808)
  86 C  ( 0.000000,  0.000000,  0.000069)
  87 C  ( 0.000000,  0.000000,  0.000133)
  88 C  ( 0.000000,  0.000000,  0.002289)
  89 C  ( 0.000000,  0.000000, -0.000102)
  90 C  ( 0.000000,  0.000000, -0.000128)
  91 C  ( 0.000000,  0.000000, -0.000278)
  92 C  ( 0.000000,  0.000000,  0.000130)
  93 C  ( 0.000000,  0.000000,  0.000113)
  94 C  ( 0.000000,  0.000000,  0.000798)
  95 C  ( 0.000000,  0.000000,  0.001250)
  96 C  ( 0.000000,  0.000000, -0.000044)
  97 C  ( 0.000000,  0.000000, -0.000097)
  98 C  ( 0.000000,  0.000000, -0.001176)
  99 C  ( 0.000000,  0.000000, -0.000097)
 100 C  ( 0.000000,  0.000000,  0.000123)
 101 C  ( 0.000000,  0.000000,  0.000753)
 102 C  ( 0.000000,  0.000000,  0.000123)
 103 C  ( 0.000000,  0.000000,  0.000773)
 104 C  ( 0.000000,  0.000000, -0.000079)
 105 C  ( 0.000000,  0.000000, -0.000506)
 106 C  ( 0.000000,  0.000000, -0.000460)
 107 C  ( 0.000000,  0.000000, -0.000506)
 108 C  ( 0.000000,  0.000000,  0.006478)
 109 C  ( 0.000000,  0.000000,  0.000166)
 110 C  ( 0.000000,  0.000000,  0.006477)
 111 C  ( 0.000000,  0.000000,  0.005819)
 112 C  ( 0.000000,  0.000000,  0.002089)
 113 C  ( 0.000000,  0.000000, -0.001179)
 114 C  ( 0.000000,  0.000000, -0.011305)
 115 C  ( 0.000000,  0.000000, -0.001179)
 116 C  ( 0.000000,  0.000000,  0.017700)
 117 C  ( 0.000000,  0.000000,  0.016097)
 118 C  ( 0.000000,  0.000000,  0.017700)
 119 C  ( 0.000000,  0.000000,  0.259218)
 120 C  ( 0.000000,  0.000000,  0.003180)
 121 C  ( 0.000000,  0.000000, -0.000100)
 122 C  ( 0.000000,  0.000000, -0.000318)
 123 C  ( 0.000000,  0.000000, -0.000142)
 124 C  ( 0.000000,  0.000000,  0.001182)
 125 C  ( 0.000000,  0.000000,  0.000088)
 126 C  ( 0.000000,  0.000000,  0.000854)
 127 C  ( 0.000000,  0.000000,  0.000166)
 128 C  ( 0.000000,  0.000000,  0.000907)
 129 C  ( 0.000000,  0.000000, -0.001122)
 130 C  ( 0.000000,  0.000000, -0.001141)
 131 C  ( 0.000000,  0.000000, -0.009370)
 132 C  ( 0.000000,  0.000000,  0.219002)
 133 C  ( 0.000000,  0.000000,  0.013444)
 134 C  ( 0.000000,  0.000000,  0.014421)
 135 C  ( 0.000000,  0.000000,  0.014046)
 136 C  ( 0.000000,  0.000000, -0.001087)
 137 C  ( 0.000000,  0.000000, -0.000818)
 138 C  ( 0.000000,  0.000000, -0.004317)
 139 C  ( 0.000000,  0.000000, -0.008499)
 140 C  ( 0.000000,  0.000000,  0.004025)
 141 C  ( 0.000000,  0.000000,  0.005576)
 142 C  ( 0.000000,  0.000000,  0.000285)
 143 C  ( 0.000000,  0.000000,  0.002968)
 144 C  ( 0.000000,  0.000000,  0.000103)
 145 C  ( 0.000000,  0.000000,  0.000935)
 146 C  ( 0.000000,  0.000000, -0.000038)
 147 C  ( 0.000000,  0.000000, -0.000031)
 148 C  ( 0.000000,  0.000000,  0.000056)
 149 C  ( 0.000000,  0.000000,  0.000124)
 150 C  ( 0.000000,  0.000000,  0.000841)
 151 C  ( 0.000000,  0.000000,  0.000056)
 152 C  ( 0.000000,  0.000000,  0.001981)
 153 C  ( 0.000000,  0.000000, -0.000125)
 154 C  ( 0.000000,  0.000000, -0.000096)
 155 C  ( 0.000000,  0.000000, -0.000202)
 156 C  ( 0.000000,  0.000000,  0.000124)
 157 C  ( 0.000000,  0.000000,  0.000122)
 158 C  ( 0.000000,  0.000000,  0.001102)
 159 C  ( 0.000000,  0.000000,  0.000841)
 160 C  ( 0.000000,  0.000000, -0.000562)
 161 C  ( 0.000000,  0.000000, -0.000126)
 162 C  ( 0.000000,  0.000000, -0.000118)
 163 C  ( 0.000000,  0.000000, -0.000066)
 164 C  ( 0.000000,  0.000000,  0.000002)
 165 C  ( 0.000000,  0.000000,  0.000583)
 166 C  ( 0.000000,  0.000000,  0.000018)
 167 C  ( 0.000000,  0.000000,  0.000080)
 168 C  ( 0.000000,  0.000000,  0.003179)
 169 C  ( 0.000000,  0.000000, -0.000142)
 170 C  ( 0.000000,  0.000000, -0.000318)
 171 C  ( 0.000000,  0.000000, -0.000100)
 172 C  ( 0.000000,  0.000000,  0.000854)
 173 C  ( 0.000000,  0.000000,  0.000088)
 174 C  ( 0.000000,  0.000000,  0.001182)
 175 C  ( 0.000000,  0.000000,  0.000166)
 176 C  ( 0.000000,  0.000000,  0.000907)
 177 C  ( 0.000000,  0.000000, -0.009370)
 178 C  ( 0.000000,  0.000000, -0.001141)
 179 C  ( 0.000000,  0.000000, -0.001122)
 180 C  ( 0.000000,  0.000000,  0.014420)
 181 C  ( 0.000000,  0.000000,  0.013444)
 182 C  ( 0.000000,  0.000000,  0.218988)
 183 C  ( 0.000000,  0.000000,  0.014045)
 184 C  ( 0.000000,  0.000000, -0.001087)
 185 C  ( 0.000000,  0.000000, -0.008499)
 186 C  ( 0.000000,  0.000000, -0.004316)
 187 C  ( 0.000000,  0.000000, -0.000818)
 188 C  ( 0.000000,  0.000000,  0.000285)
 189 C  ( 0.000000,  0.000000,  0.005576)
 190 C  ( 0.000000,  0.000000,  0.004025)
 191 C  ( 0.000000,  0.000000,  0.002968)
 192 C  ( 0.000000,  0.000000, -0.000698)
 193 C  ( 0.000000,  0.000000, -0.000128)
 194 C  ( 0.000000,  0.000000, -0.000075)
 195 C  ( 0.000000,  0.000000, -0.000128)
 196 C  ( 0.000000,  0.000000,  0.000066)
 197 C  ( 0.000000,  0.000000,  0.000644)
 198 C  ( 0.000000,  0.000000,  0.000066)
 199 C  ( 0.000000,  0.000000,  0.000005)
 200 C  ( 0.000000,  0.000000, -0.001000)
 201 C  ( 0.000000,  0.000000, -0.005176)
 202 C  ( 0.000000,  0.000000, -0.000709)
 203 C  ( 0.000000,  0.000000, -0.005175)
 204 C  ( 0.000000,  0.000000,  0.003180)
 205 C  ( 0.000000,  0.000000,  0.004782)
 206 C  ( 0.000000,  0.000000,  0.003180)
 207 C  ( 0.000000,  0.000000,  0.000219)
 208 C  ( 0.000000,  0.000000,  0.000466)
 209 C  ( 0.000000,  0.000000,  0.000575)
 210 C  ( 0.000000,  0.000000,  0.000466)
 211 C  ( 0.000000,  0.000000,  0.000109)
 212 N  ( 0.000000,  0.000000, -0.000914)
 213 C  ( 0.000000,  0.000000,  0.000109)
 214 C  ( 0.000000,  0.000000,  0.000207)

Energy contributions relative to reference atoms: (reference = -221394.138216)

Kinetic:       +1742.913803
Potential:     -1572.287936
External:        +0.000000
XC:            -2330.998193
Entropy (-ST):   +0.000000
Local:           +2.846661
SIC:             +0.000000
--------------------------
Free energy:   -2157.525665
Extrapolated:  -2157.525665

HYB_GGA_XC_HSE06 + 0.25 * EXX(omega = 0.11 bohr^-1)
Short-range Coulomb: erfc(omega*r)/r (omega = 0.11 bohr^-1)
Spin contamination: 0.182192 electrons
                   Up                     Down
 Band  Eigenvalues  Occupancy  Eigenvalues  Occupancy
    0    -12.12539    1.00000    -12.11891    1.00000
    1    -11.21651    1.00000    -11.21283    1.00000
    2    -11.02218    1.00000    -11.01940    1.00000
    3    -11.02180    1.00000    -11.01860    1.00000
    4    -10.98312    1.00000    -10.97268    1.00000
    5    -10.97141    1.00000    -10.96371    1.00000
    6    -10.88491    1.00000    -10.87002    1.00000
    7    -10.29687    1.00000    -10.29279    1.00000
    8     -9.92554    1.00000     -9.92295    1.00000
    9     -9.92473    1.00000     -9.92255    1.00000
   10     -9.91908    1.00000     -9.91609    1.00000
   11     -9.91467    1.00000     -9.91248    1.00000
   12     -9.90441    1.00000     -9.89907    1.00000
   13     -9.88317    1.00000     -9.87165    1.00000
   14     -9.87388    1.00000     -9.86738    1.00000
   15     -9.86344    1.00000     -9.85974    1.00000
   16     -9.83006    1.00000     -9.80835    1.00000
   17     -9.80750    1.00000     -9.78807    1.00000
   18     -9.63216    1.00000     -9.60236    1.00000
   19     -9.08025    1.00000     -9.07448    1.00000
   20     -8.80720    1.00000     -8.79929    1.00000
   21     -8.80426    1.00000     -8.79630    1.00000
   22     -8.79227    1.00000     -8.78493    1.00000
   23     -8.78480    1.00000     -8.77054    1.00000
   24     -8.77081    1.00000     -8.75590    1.00000
   25     -8.76445    1.00000     -8.74675    1.00000
   26     -8.59959    1.00000     -8.56821    1.00000
   27     -7.92368    1.00000     -7.90815    1.00000
   28     -7.71679    1.00000     -7.71011    1.00000
   29     -7.71037    1.00000     -7.70385    1.00000
   30     -7.69438    1.00000     -7.67927    1.00000
   31     -7.68862    1.00000     -7.67735    1.00000
   32     -7.62743    1.00000     -7.61718    1.00000
   33     -7.27286    1.00000     -7.25606    1.00000
   34     -6.73818    1.00000     -6.73288    1.00000
   35     -6.73521    1.00000     -6.73123    1.00000
   36     -6.72689    1.00000     -6.72545    1.00000
   37     -6.72561    1.00000     -6.72303    1.00000
   38     -6.72458    1.00000     -6.72078    1.00000
   39     -6.71269    1.00000     -6.70899    1.00000
   40     -6.71168    1.00000     -6.70694    1.00000
   41     -6.70877    1.00000     -6.70457    1.00000
   42     -6.69750    1.00000     -6.69575    1.00000
   43     -6.69127    1.00000     -6.68880    1.00000
   44     -6.69099    1.00000     -6.68619    1.00000
   45     -6.68423    1.00000     -6.68055    1.00000
   46     -6.68338    1.00000     -6.67891    1.00000
   47     -6.67955    1.00000     -6.67632    1.00000
   48     -6.66374    1.00000     -6.64530    1.00000
   49     -6.65013    1.00000     -6.63685    1.00000
   50     -6.64579    1.00000     -6.63212    1.00000
   51     -6.64530    1.00000     -6.63016    1.00000
   52     -6.63539    1.00000     -6.62438    1.00000
   53     -6.61270    1.00000     -6.60924    1.00000
   54     -6.55804    1.00000     -6.52182    1.00000
   55     -6.53944    1.00000     -6.50693    1.00000
   56     -6.35534    1.00000     -6.33820    1.00000
   57     -6.13767    1.00000     -6.13302    1.00000
   58     -5.89707    1.00000     -5.89504    1.00000
   59     -5.88883    1.00000     -5.88619    1.00000
   60     -5.86414    1.00000     -5.86062    1.00000
   61     -5.86391    1.00000     -5.85841    1.00000
   62     -5.85822    1.00000     -5.85339    1.00000
   63     -5.85074    1.00000     -5.84393    1.00000
   64     -5.84667    1.00000     -5.83777    1.00000
   65     -5.84044    1.00000     -5.83676    1.00000
   66     -5.83932    1.00000     -5.83395    1.00000
   67     -5.82754    1.00000     -5.82010    1.00000
   68     -5.82751    1.00000     -5.81945    1.00000
   69     -5.80906    1.00000     -5.79921    1.00000
   70     -5.80540    1.00000     -5.79850    1.00000
   71     -5.80045    1.00000     -5.79463    1.00000
   72     -5.78542    1.00000     -5.78012    1.00000
   73     -5.77776    1.00000     -5.77340    1.00000
   74     -5.76248    1.00000     -5.74929    1.00000
   75     -5.75188    1.00000     -5.73495    1.00000
   76     -5.73015    1.00000     -5.71572    1.00000
   77     -5.70540    1.00000     -5.69521    1.00000
   78     -5.61272    1.00000     -5.51710    1.00000
   79     -5.58951    1.00000     -5.50242    1.00000
   80     -4.85812    1.00000     -4.77365    1.00000
   81     -4.19784    1.00000     -4.18698    1.00000
   82     -4.01729    1.00000     -4.01225    1.00000
   83     -4.01483    1.00000     -4.00899    1.00000
   84     -3.98458    1.00000     -3.97266    1.00000
   85     -3.97883    1.00000     -3.96850    1.00000
   86     -3.96773    1.00000     -3.96194    1.00000
   87     -3.96569    1.00000     -3.95789    1.00000
   88     -3.96400    1.00000     -3.95621    1.00000
   89     -3.95529    1.00000     -3.94759    1.00000
   90     -3.91634    1.00000     -3.86905    1.00000
   91     -3.90651    1.00000     -3.86379    1.00000
   92     -3.52534    1.00000     -3.44179    1.00000
   93     -2.62969    1.00000     -2.61267    1.00000
   94     -2.57017    1.00000     -2.56637    1.00000
   95     -2.56573    1.00000     -2.56113    1.00000
   96     -2.55028    1.00000     -2.54029    1.00000
   97     -2.54331    1.00000     -2.53317    1.00000
   98     -2.50314    1.00000     -2.49452    1.00000
   99     -2.26332    1.00000     -2.23499    1.00000
  100     -2.06766    1.00000     -2.06412    1.00000
  101     -2.05330    1.00000     -2.04992    1.00000
  102     -2.02524    1.00000     -2.02505    1.00000
  103     -2.01737    1.00000     -2.01469    1.00000
  104     -2.01638    1.00000     -2.01449    1.00000
  105     -2.01223    1.00000     -2.00932    1.00000
  106     -2.00703    1.00000     -2.00414    1.00000
  107     -2.00473    1.00000     -2.00167    1.00000
  108     -2.00408    1.00000     -2.00105    1.00000
  109     -1.99309    1.00000     -1.98602    1.00000
  110     -1.97998    1.00000     -1.97586    1.00000
  111     -1.97883    1.00000     -1.97379    1.00000
  112     -1.97499    1.00000     -1.97173    1.00000
  113     -1.95682    1.00000     -1.94672    1.00000
  114     -1.92203    1.00000     -1.90703    1.00000
  115     -1.90724    1.00000     -1.89440    1.00000
  116     -1.90586    1.00000     -1.89388    1.00000
  117     -1.87573    1.00000     -1.86897    1.00000
  118     -1.87326    1.00000     -1.86417    1.00000
  119     -1.86102    1.00000     -1.85223    1.00000
  120     -1.85514    1.00000     -1.81289    1.00000
  121     -1.84271    1.00000     -1.80750    1.00000
  122     -1.76698    1.00000     -1.76361    1.00000
  123     -1.73928    1.00000     -1.73586    1.00000
  124     -1.73676    1.00000     -1.73270    1.00000
  125     -1.73328    1.00000     -1.72394    1.00000
  126     -1.71153    1.00000     -1.70732    1.00000
  127     -1.70945    1.00000     -1.70448    1.00000
  128     -1.70808    1.00000     -1.70373    1.00000
  129     -1.70634    1.00000     -1.70086    1.00000
  130     -1.70203    1.00000     -1.69798    1.00000
  131     -1.69882    1.00000     -1.69191    1.00000
  132     -1.69406    1.00000     -1.67897    1.00000
  133     -1.67724    1.00000     -1.66991    1.00000
  134     -1.67367    1.00000     -1.66897    1.00000
  135     -1.66112    1.00000     -1.64702    1.00000
  136     -1.65240    1.00000     -1.64261    1.00000
  137     -1.65140    1.00000     -1.63925    1.00000
  138     -1.64721    1.00000     -1.63549    1.00000
  139     -1.63991    1.00000     -1.62820    1.00000
  140     -1.63572    1.00000     -1.62266    1.00000
  141     -1.63083    1.00000     -1.61259    1.00000
  142     -1.61739    1.00000     -1.57771    1.00000
  143     -1.39033    1.00000     -1.37142    1.00000
  144     -1.28805    1.00000     -1.21037    1.00000
  145     -1.27650    1.00000     -1.20776    1.00000
  146     -0.86209    1.00000     -0.83131    1.00000
  147     -0.57656    1.00000     -0.56555    1.00000
  148     -0.57223    1.00000     -0.56102    1.00000
  149     -0.56847    1.00000     -0.55324    1.00000
  150     -0.52433    1.00000     -0.52049    1.00000
  151     -0.52403    1.00000     -0.51776    1.00000
  152     -0.52008    1.00000     -0.51603    1.00000
  153     -0.51408    1.00000     -0.50304    1.00000
  154     -0.49167    1.00000     -0.48417    1.00000
  155     -0.49033    1.00000     -0.48342    1.00000
  156     -0.36933    1.00000     -0.27547    1.00000
  157     -0.35889    1.00000     -0.27485    1.00000
  158      0.69745    1.00000      0.80510    1.00000
  159      1.17250    1.00000      1.18895    1.00000
  160      1.18051    1.00000      1.18965    1.00000
  161      1.18145    1.00000      1.19017    1.00000
  162      1.24269    1.00000      1.25291    1.00000
  163      1.25836    1.00000      1.26348    1.00000
  164      1.26651    1.00000      1.27405    1.00000
  165      1.27009    1.00000      1.27495    1.00000
  166      1.27136    1.00000      1.27729    1.00000
  167      1.27233    1.00000      1.27763    1.00000
  168      1.27407    1.00000      1.28530    1.00000
  169      1.28741    1.00000      1.29084    1.00000
  170      1.29367    1.00000      1.29817    1.00000
  171      1.29958    1.00000      1.30333    1.00000
  172      1.30110    1.00000      1.30496    1.00000
  173      1.31346    1.00000      1.32538    1.00000
  174      1.32612    1.00000      1.33867    1.00000
  175      1.43463    1.00000      1.45386    1.00000
  176      1.44204    1.00000      1.46739    1.00000
  177      1.44843    1.00000      1.47080    1.00000
  178      1.46055    1.00000      1.48348    1.00000
  179      1.82535    1.00000      1.83405    1.00000
  180      1.83462    1.00000      1.84373    1.00000
  181      1.85075    1.00000      1.87903    1.00000
  182      1.92868    1.00000      1.93008    1.00000
  183      1.93116    1.00000      1.93619    1.00000
  184      1.93396    1.00000      1.93785    1.00000
  185      1.93556    1.00000      1.93875    1.00000
  186      1.93629    1.00000      1.94654    1.00000
  187      1.94059    1.00000      1.94673    1.00000
  188      1.95110    1.00000      1.95557    1.00000
  189      1.95196    1.00000      1.95573    1.00000
  190      1.95281    1.00000      1.95806    1.00000
  191      1.95601    1.00000      1.96780    1.00000
  192      1.96087    1.00000      1.96814    1.00000
  193      1.96754    1.00000      1.97456    1.00000
  194      1.97518    1.00000      1.98547    1.00000
  195      1.97790    1.00000      1.98913    1.00000
  196      1.98516    1.00000      2.00043    1.00000
  197      1.99192    1.00000      2.00724    1.00000
  198      2.00344    1.00000      2.01885    1.00000
  199      2.00512    1.00000      2.01942    1.00000
  200      2.21260    1.00000      2.29944    1.00000
  201      2.21490    1.00000      2.31075    1.00000
  202      2.87765    1.00000      2.89351    1.00000
  203      2.88750    1.00000      2.89916    1.00000
  204      2.89308    1.00000      2.90569    1.00000
  205      2.95422    1.00000      2.95699    1.00000
  206      2.95868    1.00000      2.96057    1.00000
  207      2.95935    1.00000      2.96237    1.00000
  208      2.96196    1.00000      2.96345    1.00000
  209      2.96658    1.00000      2.96993    1.00000
  210      2.97160    1.00000      2.97462    1.00000
  211      2.97683    1.00000      2.98126    1.00000
  212      2.98299    1.00000      2.98819    1.00000
  213      2.98929    1.00000      2.99263    1.00000
  214      2.99885    1.00000      3.00304    1.00000
  215      3.00297    1.00000      3.00690    1.00000
  216      3.04508    1.00000      3.05717    1.00000
  217      3.06058    1.00000      3.07014    1.00000
  218      3.06165    1.00000      3.07213    1.00000
  219      3.07035    1.00000      3.08144    1.00000
  220      3.07959    1.00000      3.08843    1.00000
  221      3.11161    1.00000      3.13007    1.00000
  222      3.11813    1.00000      3.13504    1.00000
  223      3.17823    1.00000      3.18196    1.00000
  224      3.20127    1.00000      3.21595    1.00000
  225      3.20304    1.00000      3.21795    1.00000
  226      3.24004    1.00000      3.29380    1.00000
  227      3.43008    1.00000      3.43781    1.00000
  228      3.43361    1.00000      3.44275    1.00000
  229      3.48793    1.00000      3.50377    1.00000
  230      3.53820    1.00000      3.54081    1.00000
  231      3.53877    1.00000      3.54277    1.00000
  232      3.54376    1.00000      3.55182    1.00000
  233      3.54421    1.00000      3.55258    1.00000
  234      3.55966    1.00000      3.56405    1.00000
  235      3.56313    1.00000      3.56858    1.00000
  236      3.56563    1.00000      3.57243    1.00000
  237      3.56860    1.00000      3.57640    1.00000
  238      3.57441    1.00000      3.58278    1.00000
  239      3.58168    1.00000      3.59330    1.00000
  240      3.58172    1.00000      3.59403    1.00000
  241      3.58920    1.00000      3.59433    1.00000
  242      3.59002    1.00000      3.59868    1.00000
  243      3.59777    1.00000      3.61106    1.00000
  244      3.60241    1.00000      3.61627    1.00000
  245      3.60368    1.00000      3.62812    1.00000
  246      3.61777    1.00000      3.62908    1.00000
  247      3.62055    1.00000      3.63562    1.00000
  248      3.62411    1.00000      3.63568    1.00000
  249      3.64213    1.00000      3.65086    1.00000
  250      3.64457    1.00000      3.65674    1.00000
  251      3.66137    1.00000      3.69387    1.00000
  252      3.67058    1.00000      3.70581    1.00000
  253      4.01341    1.00000      4.04570    1.00000
  254      4.04301    1.00000      4.12373    1.00000
  255      4.05976    1.00000      4.12673    1.00000
  256      4.61422    1.00000      4.62320    1.00000
  257      4.62354    1.00000      4.63252    1.00000
  258      4.67651    1.00000      4.68978    1.00000
  259      4.69378    1.00000      4.70455    1.00000
  260      4.71167    1.00000      4.73624    1.00000
  261      4.71341    1.00000      4.73756    1.00000
  262      4.79024    1.00000      4.90946    1.00000
  263      5.20167    1.00000      5.22030    1.00000
  264      5.20223    1.00000      5.22248    1.00000
  265      5.28128    1.00000      5.29044    1.00000
  266      5.28909    1.00000      5.29265    1.00000
  267      5.29091    1.00000      5.29729    1.00000
  268      5.30298    1.00000      5.31118    1.00000
  269      5.30732    1.00000      5.31599    1.00000
  270      5.30760    1.00000      5.31782    1.00000
  271      5.33317    1.00000      5.35379    1.00000
  272      5.38963    1.00000      5.41205    1.00000
  273      5.39973    1.00000      5.42618    1.00000
  274      5.59698    1.00000      5.60288    1.00000
  275      5.60376    1.00000      5.61027    1.00000
  276      5.70097    1.00000      5.72654    1.00000
  277      5.73941    1.00000      5.75103    1.00000
  278      5.73994    1.00000      5.75434    1.00000
  279      5.74874    1.00000      5.75890    1.00000
  280      5.75312    1.00000      5.77347    1.00000
  281      5.75929    1.00000      5.77394    1.00000
  282      5.76319    1.00000      5.77755    1.00000
  283      5.78669    1.00000      5.80155    1.00000
  284      5.81825    1.00000      5.83367    1.00000
  285      5.81914    1.00000      5.83399    1.00000
  286      5.82659    1.00000      5.84634    1.00000
  287      5.96979    1.00000      5.98381    1.00000
  288      5.99681    1.00000      6.00781    1.00000
  289      6.01266    1.00000      6.01613    1.00000
  290      6.03921    1.00000      6.04270    1.00000
  291      6.04290    1.00000      6.04520    1.00000
  292      6.04395    1.00000      6.04707    1.00000
  293      6.05781    1.00000      6.06228    1.00000
  294      6.05929    1.00000      6.06257    1.00000
  295      6.06127    1.00000      6.06393    1.00000
  296      6.06592    1.00000      6.06895    1.00000
  297      6.07063    1.00000      6.07456    1.00000
  298      6.07392    1.00000      6.07685    1.00000
  299      6.07493    1.00000      6.08150    1.00000
  300      6.07844    1.00000      6.08209    1.00000
  301      6.08846    1.00000      6.09197    1.00000
  302      6.11069    1.00000      6.11724    1.00000
  303      6.11102    1.00000      6.12100    1.00000
  304      6.12514    1.00000      6.13402    1.00000
  305      6.12914    1.00000      6.14185    1.00000
  306      6.12996    1.00000      6.14822    1.00000
  307      6.13993    1.00000      6.15051    1.00000
  308      6.14248    1.00000      6.15144    1.00000
  309      6.14527    1.00000      6.15323    1.00000
  310      6.20425    1.00000      6.21358    1.00000
  311      6.21488    1.00000      6.22292    1.00000
  312      6.23890    1.00000      6.24870    1.00000
  313      6.27739    1.00000      6.27829    1.00000
  314      6.28211    1.00000      6.28552    1.00000
  315      6.28261    1.00000      6.28572    1.00000
  316      6.28443    1.00000      6.28869    1.00000
  317      6.28565    1.00000      6.29302    1.00000
  318      6.29074    1.00000      6.29382    1.00000
  319      6.29085    1.00000      6.29910    1.00000
  320      6.29511    1.00000      6.30094    1.00000
  321      6.29830    1.00000      6.30285    1.00000
  322      6.29942    1.00000      6.30363    1.00000
  323      6.30168    1.00000      6.30753    1.00000
  324      6.30834    1.00000      6.31564    1.00000
  325      6.31555    1.00000      6.31999    1.00000
  326      6.32256    1.00000      6.32762    1.00000
  327      6.32282    1.00000      6.33051    1.00000
  328      6.32731    1.00000      6.33342    1.00000
  329      6.32953    1.00000      6.33491    1.00000
  330      6.33309    1.00000      6.33934    1.00000
  331      6.33327    1.00000      6.33983    1.00000
  332      6.33536    1.00000      6.34777    1.00000
  333      6.34591    1.00000      6.35421    1.00000
  334      6.35159    1.00000      6.35874    1.00000
  335      6.35501    1.00000      6.36500    1.00000
  336      6.35746    1.00000      6.36643    1.00000
  337      6.35904    1.00000      6.37369    1.00000
  338      6.36397    1.00000      6.37796    1.00000
  339      6.37160    1.00000      6.38096    1.00000
  340      6.38442    1.00000      6.39767    1.00000
  341      6.38654    1.00000      6.39917    1.00000
  342      6.39116    1.00000      6.40580    1.00000
  343      6.40462    1.00000      6.41403    1.00000
  344      6.41194    1.00000      6.42042    1.00000
  345      6.42767    1.00000      6.44419    1.00000
  346      6.43083    1.00000      6.44632    1.00000
  347      6.43526    1.00000      6.46683    1.00000
  348      6.46191    1.00000      6.48129    1.00000
  349      6.48181    1.00000      6.49659    1.00000
  350      6.49113    1.00000      6.51578    1.00000
  351      6.49171    1.00000      6.52599    1.00000
  352      6.49953    1.00000      6.53007    1.00000
  353      6.57818    1.00000      6.63698    1.00000
  354      6.61485    1.00000      6.66948    1.00000
  355      6.90401    1.00000      6.92226    1.00000
  356      6.91179    1.00000      6.94111    1.00000
  357      6.91343    1.00000      6.94692    1.00000
  358      7.10347    1.00000      7.11131    1.00000
  359      7.11321    1.00000      7.12072    1.00000
  360      7.17272    1.00000      7.17637    1.00000
  361      7.17838    1.00000      7.18241    1.00000
  362      7.17956    1.00000      7.18293    1.00000
  363      7.18644    1.00000      7.18892    1.00000
  364      7.20283    1.00000      7.21265    1.00000
  365      7.20773    1.00000      7.21881    1.00000
  366      7.21911    1.00000      7.22638    1.00000
  367      7.22315    1.00000      7.23128    1.00000
  368      7.23318    1.00000      7.23878    1.00000
  369      7.23385    1.00000      7.24814    1.00000
  370      7.24634    1.00000      7.26006    1.00000
  371      7.24742    1.00000      7.26105    1.00000
  372      7.25544    1.00000      7.27277    1.00000
  373      7.26175    1.00000      7.28618    1.00000
  374      7.26779    1.00000      7.28698    1.00000
  375      7.27851    1.00000      7.29036    1.00000
  376      7.31478    1.00000      7.35118    1.00000
  377      7.32842    1.00000      7.36976    1.00000
  378      7.38536    1.00000      7.43664    1.00000
  379      8.08966    1.00000      8.10993    1.00000
  380      8.23409    1.00000      8.35874    1.00000
  381      8.24943    1.00000      8.36632    1.00000
  382      8.52659    1.00000      8.74100    1.00000
  383      8.71976    1.00000      8.74697    1.00000
  384      8.72312    1.00000      8.76274    1.00000
  385      8.78047    1.00000      8.78593    1.00000
  386      8.78276    1.00000      8.78822    1.00000
  387      8.78907    1.00000      8.79528    1.00000
  388      8.79844    1.00000      8.80718    1.00000
  389      8.80399    1.00000      8.82551    1.00000
  390      8.80625    1.00000      8.83032    1.00000
  391      8.81443    1.00000      8.84067    1.00000
  392      8.87110    1.00000      8.87839    1.00000
  393      8.88063    1.00000      8.88892    1.00000
  394      8.88811    1.00000      8.89718    1.00000
  395      8.96474    1.00000      8.97065    1.00000
  396      8.97585    1.00000      8.98154    1.00000
  397      9.02626    1.00000      9.03516    1.00000
  398      9.03201    1.00000      9.03754    1.00000
  399      9.03271    1.00000      9.04071    1.00000
  400      9.03550    1.00000      9.04449    1.00000
  401      9.04479    1.00000      9.05412    1.00000
  402      9.04658    1.00000      9.05826    1.00000
  403      9.04709    1.00000      9.05964    1.00000
  404      9.05864    1.00000      9.07080    1.00000
  405      9.07240    1.00000      9.09112    1.00000
  406      9.07936    1.00000      9.09798    1.00000
  407      9.08998    1.00000      9.11163    1.00000
  408      9.10652    1.00000      9.12176    1.00000
  409      9.11472    1.00000      9.13792    1.00000
  410      9.12068    1.00000      9.14275    1.00000
  411      9.13239    1.00000      9.14753    1.00000
  412      9.14593    1.00000      9.15708    1.00000
  413      9.74467    1.00000      9.76105    1.00000
  414      9.78482    1.00000      9.83228    1.00000
  415      9.78516    1.00000      9.83880    1.00000
  416      9.93714    1.00000     10.04461    1.00000
  417     10.03401    1.00000     10.05047    1.00000
  418     10.04154    1.00000     10.05721    1.00000
  419     10.05457    1.00000     10.08316    1.00000
  420     10.07563    1.00000     10.08780    1.00000
  421     10.08109    1.00000     10.08850    1.00000
  422     10.08196    1.00000     10.12417    1.00000
  423     10.10545    1.00000     10.15400    1.00000
  424     10.13011    1.00000     10.18490    1.00000
  425     10.16169    1.00000     10.41466    1.00000
  426     11.27005    1.00000     11.48638    1.00000
  427     11.41762    1.00000     11.49203    1.00000
  428     11.42435    1.00000     11.49806    1.00000
  429     12.16005    1.00000     13.13609    1.00000
  430     13.17339    1.00000     15.98897    0.00000
  431     13.47807    1.00000     16.08721    0.00000
  432     17.04707    0.00000     17.05134    0.00000
  433     17.05883    0.00000     17.06291    0.00000
  434     17.07050    0.00000     17.08145    0.00000
  435     17.10678    0.00000     17.12468    0.00000
  436     17.10919    0.00000     17.12485    0.00000
  437     17.12985    0.00000     17.14203    0.00000
  438     17.62980    0.00000     17.63554    0.00000
  439     17.69310    0.00000     17.70243    0.00000
  440     17.70159    0.00000     17.71010    0.00000
  441     17.70929    0.00000     17.71737    0.00000
  442     17.71447    0.00000     17.72119    0.00000
  443     17.78875    0.00000     17.80336    0.00000

Fermi level: 15.26275

Gap: 2.511 eV
Transition (v -> c):
  (s=0, k=0, n=431, [[0.00, 0.00, 0.00]]) -> (s=1, k=0, n=430, [[0.00, 0.00, 0.00]])
No difference between direct/indirect transitions

Forces in eV/Ang:
  0 C     0.00113    0.00117   -0.00472
  1 C     0.00316    0.00233   -0.00295
  2 C    -0.00100   -0.00094   -0.00457
  3 C     0.00225    0.00319   -0.00297
  4 C     0.00275    0.00179   -0.00115
  5 C     0.00143    0.00148   -0.00579
  6 C     0.00170    0.00285   -0.00111
  7 C    -0.00115   -0.00109   -0.00166
  8 C     0.00196    0.00203   -0.00448
  9 C    -0.00244    0.00067   -0.00076
 10 C     0.00214    0.00225   -0.00271
 11 C     0.00061   -0.00238   -0.00077
 12 C     0.00367   -0.00434   -0.01593
 13 C     0.00239    0.00247   -0.00451
 14 C    -0.00436    0.00367   -0.01588
 15 C    -0.00014   -0.00007   -0.00102
 16 C     0.00639    0.00645    0.01153
 17 C     0.00352   -0.00268   -0.00708
 18 C    -0.00871   -0.00869    0.03235
 19 C    -0.00275    0.00358   -0.00709
 20 C    -0.00027   -0.00479   -0.00557
 21 C    -0.00189   -0.00180   -0.00783
 22 C    -0.00486   -0.00022   -0.00556
 23 C    -0.01676   -0.01670   -0.04886
 24 C     0.00058    0.00113   -0.00219
 25 C    -0.00001    0.00806    0.00096
 26 C    -0.00227   -0.00979    0.00247
 27 C    -0.00100    0.00136    0.00002
 28 C    -0.00291    0.00177    0.00360
 29 C    -0.00364    0.00252    0.00203
 30 C    -0.01491   -0.02370    0.01250
 31 C    -0.01443    0.03778    0.01496
 32 C    -0.00041    0.00411    0.00009
 33 C     0.02079   -0.00594   -0.00118
 34 C    -0.00073    0.00814   -0.00091
 35 C     0.00313    0.00991    0.00414
 36 C     0.01362   -0.00610    0.01185
 37 C    -0.00151   -0.00202   -0.00457
 38 C     0.00365    0.00407    0.00083
 39 C    -0.00838   -0.01762   -0.00129
 40 C    -0.01874    0.01393    0.02852
 41 C    -0.01150   -0.01719   -0.00424
 42 C     0.00249    0.00053   -0.00195
 43 C    -0.00063   -0.00621    0.00619
 44 C    -0.00354    0.00988   -0.01045
 45 C     0.00321    0.00446    0.00428
 46 C    -0.00247    0.00708   -0.00277
 47 C     0.00875   -0.00796    0.01206
 48 C    -0.00358   -0.00082    0.00039
 49 C     0.00300    0.00683   -0.00145
 50 C     0.00235   -0.00009   -0.00654
 51 C    -0.00821   -0.01390    0.01688
 52 C     0.00935    0.02187    0.00839
 53 C     0.00143    0.00181    0.00219
 54 C     0.00372    0.00526   -0.00207
 55 C     0.00014    0.00111    0.00064
 56 C    -0.02903    0.04992    0.03386
 57 C     0.00404    0.00065   -0.01668
 58 C     0.00200    0.00040   -0.00236
 59 C     0.00135    0.00339   -0.00439
 60 C    -0.00001   -0.01485    0.01497
 61 C     0.00780    0.00183    0.00465
 62 C    -0.00139   -0.00149    0.00936
 63 C     0.00476    0.00354   -0.00282
 64 C     0.01259   -0.00344    0.00272
 65 C    -0.00328    0.00140   -0.00062
 66 C     0.00069    0.00462   -0.00582
 67 C     0.00231   -0.00067   -0.00835
 68 C     0.01070   -0.01069    0.00613
 69 C    -0.00443    0.00389    0.00477
 70 C     0.00079    0.00018   -0.00353
 71 C    -0.00821    0.00159    0.01973
 72 C     0.00110    0.00062   -0.00222
 73 C     0.00133   -0.00091   -0.00001
 74 C    -0.00975   -0.00221    0.00242
 75 C     0.00810    0.00001    0.00096
 76 C    -0.02370   -0.01490    0.01257
 77 C     0.00253   -0.00357    0.00201
 78 C     0.00176   -0.00284    0.00360
 79 C     0.03782   -0.01437    0.01495
 80 C     0.00405   -0.00035    0.00007
 81 C     0.00988    0.00322    0.00414
 82 C     0.00815   -0.00066   -0.00088
 83 C    -0.00587    0.02071   -0.00114
 84 C     0.00412    0.00366    0.00084
 85 C    -0.00206   -0.00147   -0.00459
 86 C    -0.00612    0.01372    0.01184
 87 C    -0.01758   -0.00827   -0.00130
 88 C     0.01399   -0.01882    0.02858
 89 C    -0.00623   -0.00057    0.00616
 90 C     0.00055    0.00256   -0.00195
 91 C    -0.01716   -0.01153   -0.00429
 92 C     0.00717   -0.00246   -0.00282
 93 C     0.00449    0.00323    0.00425
 94 C     0.00988   -0.00346   -0.01047
 95 C    -0.00790    0.00884    0.01204
 96 C    -0.00694   -0.00690    0.00460
 97 C    -0.00405   -0.01133    0.00299
 98 C     0.00010    0.00009   -0.03085
 99 C    -0.01132   -0.00400    0.00297
100 C     0.00561    0.00714   -0.00132
101 C     0.00851    0.00854    0.00048
102 C     0.00713    0.00556   -0.00133
103 C    -0.00904   -0.00908    0.00063
104 C     0.00159    0.00165   -0.00312
105 C    -0.00212    0.03128   -0.01483
106 C    -0.01553   -0.01553    0.02025
107 C     0.03131   -0.00198   -0.01480
108 C    -0.06516    0.03416    0.00850
109 C    -0.00639   -0.00637    0.01159
110 C     0.03403   -0.06522    0.00860
111 C     0.01951    0.01934    0.01373
112 C    -0.05203   -0.05196    0.10031
113 C     0.03705   -0.00183   -0.00441
114 C    -0.10634   -0.10630    0.53451
115 C    -0.00182    0.03713   -0.00441
116 C     0.18027   -0.05640    0.04118
117 C    -0.07741   -0.07734   -0.25751
118 C    -0.05654    0.18030    0.04124
119 C     0.57582    0.57632   -1.14705
120 C    -0.03665   -0.07868    0.03682
121 C     0.00657   -0.00487   -0.00246
122 C     0.02741    0.00356    0.00824
123 C     0.00100   -0.00377   -0.00542
124 C    -0.00034    0.00388    0.00038
125 C    -0.00791   -0.00198   -0.01007
126 C    -0.00395    0.00732    0.00092
127 C    -0.01698    0.00389    0.00222
128 C     0.01830   -0.04229    0.02834
129 C    -0.01785    0.00079    0.00221
130 C    -0.01113    0.00915   -0.02411
131 C    -0.08994   -0.22349   -0.00308
132 C    -0.56132    0.32257    0.17758
133 C     0.06246    0.08360    0.05521
134 C     0.04731   -0.04305   -0.04030
135 C    -0.11622   -0.05803    0.05601
136 C     0.00212    0.00343   -0.00073
137 C    -0.00495    0.01775   -0.03602
138 C    -0.10964    0.05589    0.10484
139 C    -0.01054   -0.31817   -0.00415
140 C    -0.04553   -0.01749   -0.03513
141 C     0.02757   -0.02158    0.06860
142 C    -0.00152   -0.00927    0.00693
143 C     0.03040   -0.01717    0.00636
144 C    -0.00073   -0.00357    0.00034
145 C    -0.01383   -0.00820    0.01687
146 C    -0.00006    0.00243   -0.00654
147 C     0.00684    0.00306   -0.00144
148 C     0.00524    0.00381   -0.00207
149 C     0.00187    0.00147    0.00216
150 C     0.02189    0.00936    0.00834
151 C     0.00111    0.00019    0.00065
152 C     0.05005   -0.02913    0.03402
153 C     0.00342    0.00141   -0.00436
154 C     0.00040    0.00206   -0.00235
155 C     0.00063    0.00403   -0.01668
156 C    -0.00154   -0.00132    0.00939
157 C     0.00185    0.00785    0.00471
158 C    -0.01482    0.00006    0.01498
159 C     0.00349    0.00483   -0.00279
160 C    -0.00339    0.01256    0.00268
161 C    -0.00062    0.00237   -0.00837
162 C     0.00460    0.00076   -0.00581
163 C     0.00143   -0.00329   -0.00065
164 C     0.00016    0.00084   -0.00353
165 C     0.00394   -0.00442    0.00478
166 C    -0.01062    0.01078    0.00612
167 C     0.00158   -0.00815    0.01975
168 C    -0.07859   -0.03655    0.03678
169 C    -0.00374    0.00100   -0.00542
170 C     0.00359    0.02739    0.00827
171 C    -0.00484    0.00659   -0.00246
172 C     0.00730   -0.00392    0.00091
173 C    -0.00192   -0.00788   -0.01004
174 C     0.00393   -0.00039    0.00038
175 C     0.00388   -0.01704    0.00228
176 C    -0.04216    0.01828    0.02824
177 C    -0.22300   -0.09002   -0.00321
178 C     0.00922   -0.01118   -0.02420
179 C     0.00087   -0.01787    0.00218
180 C    -0.04284    0.04720   -0.04017
181 C     0.08356    0.06235    0.05502
182 C     0.32274   -0.56100    0.17748
183 C    -0.05778   -0.11612    0.05577
184 C     0.00346    0.00221   -0.00069
185 C    -0.31793   -0.01041   -0.00425
186 C     0.05608   -0.10966    0.10450
187 C     0.01773   -0.00485   -0.03602
188 C    -0.00925   -0.00154    0.00696
189 C    -0.02147    0.02770    0.06859
190 C    -0.01747   -0.04555   -0.03514
191 C    -0.01708    0.03028    0.00633
192 C     0.00009    0.00002   -0.02331
193 C     0.00652    0.00430   -0.00431
194 C    -0.00262   -0.00267    0.00046
195 C     0.00430    0.00648   -0.00431
196 C    -0.00644   -0.00614   -0.00564
197 C    -0.00872   -0.00876    0.00140
198 C    -0.00609   -0.00643   -0.00563
199 C    -0.00031   -0.00030   -0.00584
200 C    -0.00174   -0.00176   -0.03275
201 C     0.32907    0.03573   -0.00770
202 C     0.01803    0.01805    0.00059
203 C     0.03596    0.32854   -0.00780
204 C     0.02506    0.00544    0.01573
205 C    -0.01703   -0.01721   -0.03484
206 C     0.00553    0.02496    0.01584
207 C     0.00314    0.00315    0.00355
208 C    -0.02556   -0.05037   -0.00686
209 C     0.05629    0.05617    0.10544
210 C    -0.05028   -0.02571   -0.00690
211 C     0.00729    0.00682   -0.01551
212 N     0.21068    0.21078   -0.19548
213 C     0.00689    0.00728   -0.01552
214 C     0.01630    0.01629   -0.04030

Timing:                                      incl.     excl.
-------------------------------------------------------------------
Density initialized from wave functions:     0.606     0.606   0.0% |
 Symmetrize density:                         0.000     0.000   0.0% |
Forces:                                   4027.727  4027.727  22.4% |--------|
Hamiltonian:                                 1.211     0.009   0.0% |
 Atomic:                                     0.515     0.001   0.0% |
  XC Correction:                             0.514     0.514   0.0% |
 Calculate atomic Hamiltonians:              0.178     0.178   0.0% |
 Communicate:                                0.229     0.229   0.0% |
 Poisson:                                    0.000     0.000   0.0% |
 XC 3D grid:                                 0.280     0.280   0.0% |
PWDescriptor:                                0.013     0.013   0.0% |
Redistribute:                                0.008     0.008   0.0% |
SCF-cycle:                                5334.484     2.410   0.0% |
 Apply H:                                  983.966   983.962   5.5% |-|
  HMM T:                                     0.003     0.003   0.0% |
 Density:                                    0.433     0.000   0.0% |
  Atomic density matrices:                   0.018     0.018   0.0% |
  Mix:                                       0.335     0.335   0.0% |
  Multipole moments:                         0.000     0.000   0.0% |
  Pseudo density:                            0.081     0.081   0.0% |
   Symmetrize density:                       0.000     0.000   0.0% |
 Direct Minimisation step:                4346.151     8.846   0.0% |
  Apply H:                                3282.587  3282.576  18.3% |------|
   HMM T:                                    0.011     0.011   0.0% |
  Density:                                   3.012     0.000   0.0% |
   Atomic density matrices:                  0.125     0.125   0.0% |
   Mix:                                      2.336     2.336   0.0% |
   Multipole moments:                        0.002     0.002   0.0% |
   Pseudo density:                           0.549     0.549   0.0% |
    Symmetrize density:                      0.000     0.000   0.0% |
  Get Search Direction:                      2.526     2.526   0.0% |
  Gradient unoccupied orbitals:           1035.737     3.620   0.0% |
   Apply H:                               1031.720  1031.717   5.7% |-|
    HMM T:                                   0.003     0.003   0.0% |
   Orthonormalize:                           0.398     0.000   0.0% |
    calc_s_matrix:                           0.026     0.026   0.0% |
    inverse-cholesky:                        0.053     0.053   0.0% |
    projections:                             0.281     0.281   0.0% |
    rotate_psi_s:                            0.037     0.037   0.0% |
  Hamiltonian:                               8.703     0.059   0.0% |
   Atomic:                                   3.614     0.017   0.0% |
    XC Correction:                           3.597     3.597   0.0% |
   Calculate atomic Hamiltonians:            1.242     1.242   0.0% |
   Communicate:                              1.604     1.604   0.0% |
   New Kinetic Energy:                       0.295     0.295   0.0% |
   Poisson:                                  0.004     0.004   0.0% |
   XC 3D grid:                               1.886     1.886   0.0% |
  Orthonormalize:                            2.781     0.003   0.0% |
   Orthonormalize:                           0.398     0.001   0.0% |
    calc_s_matrix:                           0.027     0.027   0.0% |
    inverse-cholesky:                        0.053     0.053   0.0% |
    projections:                             0.282     0.282   0.0% |
    rotate_psi_s:                            0.037     0.037   0.0% |
   calc_s_matrix:                            0.156     0.156   0.0% |
   inverse-cholesky:                         0.303     0.303   0.0% |
   projections:                              1.698     1.698   0.0% |
   rotate_psi_s:                             0.223     0.223   0.0% |
  projections:                               1.959     1.959   0.0% |
 Hamiltonian:                                1.246     0.008   0.0% |
  Atomic:                                    0.515     0.001   0.0% |
   XC Correction:                            0.514     0.514   0.0% |
  Calculate atomic Hamiltonians:             0.179     0.179   0.0% |
  Communicate:                               0.232     0.232   0.0% |
  New Kinetic Energy:                        0.043     0.043   0.0% |
  Poisson:                                   0.000     0.000   0.0% |
  XC 3D grid:                                0.268     0.268   0.0% |
 projections:                                0.278     0.278   0.0% |
Set symmetry:                                0.000     0.000   0.0% |
Other:                                    8597.769  8597.769  47.9% |------------------|
-------------------------------------------------------------------
Total:                                             17961.818 100.0%

Memory usage: 5.52 GiB
Date: Tue Sep  2 20:13:33 2025
