
  ___ ___ ___ _ _ _  
 |   |   |_  | | | | 
 | | | | | . | | | | 
 |__ |  _|___|_____|  24.6.0
 |___|_|             

User:   ac2uoma125@g03r1n28
Date:   Thu Aug 28 23:18:39 2025
Arch:   x86_64
Pid:    46893
CWD:    /work/home/ac2uoma125/gpaw/hse06_nvcenter_215/spin-purified-forces
Python: 3.12.5
gpaw:   /work/home/ac2uoma125/anaconda3/envs/gpaw2460/lib/python3.12/site-packages/gpaw
_gpaw:  /work/home/ac2uoma125/anaconda3/envs/gpaw2460/lib/python3.12/site-packages/
        _gpaw.cpython-312-x86_64-linux-gnu.so
ase:    /work/home/ac2uoma125/anaconda3/envs/gpaw2460/lib/python3.12/site-packages/ase (version 3.23.0)
numpy:  /work/home/ac2uoma125/anaconda3/envs/gpaw2460/lib/python3.12/site-packages/numpy (version 1.26.4)
scipy:  /work/home/ac2uoma125/anaconda3/envs/gpaw2460/lib/python3.12/site-packages/scipy (version 1.14.1)
libxc:  6.2.2
units:  Angstrom and eV
cores: 64
OpenMP: True
OMP_NUM_THREADS: 1

Input parameters:
  charge: -1
  eigensolver: {blocksize: 1,
                converge_unocc: False,
                excited_state: False,
                functional: {'name': 'ks'},
                grad_tol_inner_loop: 0.0005,
                grad_tol_pz_localization: 0.0005,
                linesearch_algo: {'name': 'max-step', 'max_step': 0.25},
                localization_tol: None,
                localizationseed: None,
                localizationtype: None,
                max_step_inner_loop: 0.2,
                maxiter_inner_loop: 100,
                maxiter_pz_localization: 50,
                maxiter_unocc: 333,
                momevery: 10,
                name: etdm-fdpw,
                need_init_orbs: True,
                need_localization: False,
                printinnerloop: False,
                restart_canonical: True,
                restartevery_iloop_notconverged: 3,
                searchdir_algo: {'name': 'l-bfgs', 'memory': 3},
                use_prec: True}
  mixer: {backend: no-mixing}
  mode: {ecut: 600.0,
         name: pw}
  nbands: 444
  occupations: {name: fixed-uniform}
  spinpol: True
  symmetry: off
  xc: HSE06

System changes: positions, numbers, cell, pbc, initial_charges, initial_magmoms 

Initialize ...

species:
  C:
    name: Carbon
    id: 4aa54d4b901d75f77cc0ea3eec22967b
    Z: 6.0
    valence: 4
    core: 2
    charge: 0.0
    file: /work/home/ac2uoma125/anaconda3/envs/gpaw2460/share/gpaw/C.PBE.gz
    compensation charges: {type: gauss,
                           rc: 0.20,
                           lmax: 2}
    cutoffs: {filter: 1.14,
              core: 1.14}
    projectors:
      #              energy  rcut
      - 2s(2.00)   -13.751   0.635
      - 2p(2.00)    -5.284   0.635
      -  s          13.461   0.635
      -  p          21.927   0.635
      -  d           0.000   0.635
  
    # Using partial waves for C as LCAO basis

  N:
    name: Nitrogen
    id: f7500608b86eaa90eef8b1d9a670dc53
    Z: 7.0
    valence: 5
    core: 2
    charge: 0.0
    file: /work/home/ac2uoma125/anaconda3/envs/gpaw2460/share/gpaw/N.PBE.gz
    compensation charges: {type: gauss,
                           rc: 0.18,
                           lmax: 2}
    cutoffs: {filter: 1.11,
              core: 0.96}
    projectors:
      #              energy  rcut
      - 2s(2.00)   -18.583   0.603
      - 2p(3.00)    -7.089   0.529
      -  s           8.629   0.603
      -  p          20.123   0.529
      -  d           0.000   0.577
  
    # Using partial waves for N as LCAO basis

Reference energy: -221394.138216  # eV

Spin-polarized calculation.
Magnetic moment: 0.000000

Convergence criteria:
 Maximum [total energy] change in last 3 cyles: 0.0005 eV / valence electron
 Maximum integral of absolute [dens]ity change: 0.0001 electrons / valence electron
 Maximum integral of absolute [eigenst]ate change: 4e-08 eV^2 / valence electron
 Maximum number of scf [iter]ations: 333
 (Square brackets indicate name in SCF output, whereas a 'c' in
 the SCF output indicates the quantity has converged.)

Symmetries present (total): 1

  ( 1  0  0)
  ( 0  1  0)
  ( 0  0  1)

1 k-point (Gamma)
1 k-point in the irreducible part of the Brillouin zone
       k-points in crystal coordinates                weights
   0:     0.00000000    0.00000000    0.00000000          1/1

Wave functions: Plane wave expansion
  Cutoff energy: 600.000 eV
  Number of coefficients: 40243 (reduced to 20122)
  Pulay-stress correction: 0.000000 eV/Ang^3 (de/decut=0.000000)
  Using FFTW library
  ScaLapack parameters: grid=1x1, blocksize=None
  Wavefunction extrapolation:
    Improved wavefunction reuse through dual PAW basis 

Occupation numbers: # Uniform distribution of occupation numbers 

Eigensolver
   Direct minimisation using exponential transformation.
       Search direction: L-BFGS algorithm
       Line search: step size equals one
       Preconditioning: True
       Orbital-density self-interaction corrections: ks
       WARNING: do not use it for metals as occupation numbers are
                not found variationally
 

Densities:
  Coarse grid: 63*63*63 grid
  Fine grid: 126*126*126 grid
  Total Charge: -1.000000 

Density mixing:
  Method: difference
  Backend: no-mixing
  Linear mixing parameter: 0
  old densities: 0
  Damping of long wavelength oscillations: 0 

Hamiltonian:
  XC and Coulomb potentials evaluated on a 126*126*126 grid
  Using the HSE06 Exchange-Correlation functional
  External potential:
    NoExternalPotential
Poisson solver:
  Uniform background charge: -1.000 electrons
 

XC parameters: HYB_GGA_XC_HSE06 + 0.25 * EXX(omega = 0.11 bohr^-1)

Memory estimate:
  Process memory now: 332.56 MiB
Attribute error: AttributeError("'HybridXC' object has no attribute 'estimate_memory'")
Some object probably lacks estimate_memory() method
Memory breakdown may be incomplete
  Calculator: 2.74 MiB
    Density: 1.93 MiB
      Arrays: 1.09 MiB
      Localized functions: 0.83 MiB
      Mixer: 0.00 MiB
    Hamiltonian: 0.81 MiB
      Arrays: 0.81 MiB

Total number of cores used: 64
Domain decomposition: 4 x 4 x 4

Number of atoms: 215
Number of atomic orbitals: 860
Number of bands in calculation: 444
Number of valence electrons: 862
Bands to converge: occupied

... initialized

Initializing position-dependent things.

Density initialized from atomic densities
Creating initial wave functions:
  444 bands from LCAO basis set

        .--------C----------------.  
       /|           C             |  
      / | C       C  C C   C      |  
     / C|    C  C    C  C     C   |  
    /  C|C    C C C    C CCC   C  |  
   /    C C C    C C      N CC    |  
  /  C C| CCCCCC  C C C    C CC   |  
 *    C C   CCCCC    C C C    C C |  
 |C    CCC C  CCCCC C  CCCCC   C C|  
 | C C  CCC C    CCC C C  CCC     C  
 |  C C | CCCC C  CCCCC C  CC C   |  
 C   CC C C C C C    CCC C   CC   |  
 |    CCCC C C CCCCC C CCCC C  C  |  
 |     C.CC-C-C-C-CC-C-C-C-C-C----.  
 |  C C/C CCCC   C C CC C C CCC  /   
 |   CC     C CC    C C      C  /    
 |   /C C      CCCC    C C     /     
 |  /    C C      C C      CC /      
 | /C       C        C C     /       
 |/                     C   /        
 C----------------C--------*         

Positions:
   0 C      0.002372    0.002372    0.002372    ( 0.0000,  0.0000,  0.0000)
   1 C     -0.000177    1.774292    1.774292    ( 0.0000,  0.0000,  0.0000)
   2 C      1.774292    1.774292   -0.000177    ( 0.0000,  0.0000,  0.0000)
   3 C      1.774292   -0.000177    1.774292    ( 0.0000,  0.0000,  0.0000)
   4 C      2.660291    0.886016    2.660291    ( 0.0000,  0.0000,  0.0000)
   5 C      0.887932    0.887932    0.887932    ( 0.0000,  0.0000,  0.0000)
   6 C      0.886016    2.660291    2.660291    ( 0.0000,  0.0000,  0.0000)
   7 C      2.660291    2.660291    0.886016    ( 0.0000,  0.0000,  0.0000)
   8 C     -0.001720   -0.001720    3.550221    ( 0.0000,  0.0000,  0.0000)
   9 C     -0.001514    1.772014    5.320396    ( 0.0000,  0.0000,  0.0000)
  10 C      1.772639    1.772639    3.546938    ( 0.0000,  0.0000,  0.0000)
  11 C      1.772014   -0.001514    5.320396    ( 0.0000,  0.0000,  0.0000)
  12 C      2.658540    0.886445    6.206956    ( 0.0000,  0.0000,  0.0000)
  13 C      0.885452    0.885452    4.434520    ( 0.0000,  0.0000,  0.0000)
  14 C      0.886445    2.658540    6.206956    ( 0.0000,  0.0000,  0.0000)
  15 C      2.659334    2.659334    4.433008    ( 0.0000,  0.0000,  0.0000)
  16 C      0.005597    0.005597    7.096195    ( 0.0000,  0.0000,  0.0000)
  17 C      0.000909    1.776657    8.866874    ( 0.0000,  0.0000,  0.0000)
  18 C      1.773012    1.773012    7.093113    ( 0.0000,  0.0000,  0.0000)
  19 C      1.776657    0.000909    8.866874    ( 0.0000,  0.0000,  0.0000)
  20 C      2.662759    0.886233    9.752379    ( 0.0000,  0.0000,  0.0000)
  21 C      0.889792    0.889792    7.980502    ( 0.0000,  0.0000,  0.0000)
  22 C      0.886233    2.662759    9.752379    ( 0.0000,  0.0000,  0.0000)
  23 C      2.657417    2.657417    7.978135    ( 0.0000,  0.0000,  0.0000)
  24 C     -0.001720    3.550221   -0.001720    ( 0.0000,  0.0000,  0.0000)
  25 C     -0.001514    5.320396    1.772014    ( 0.0000,  0.0000,  0.0000)
  26 C      1.772014    5.320396   -0.001514    ( 0.0000,  0.0000,  0.0000)
  27 C      1.772639    3.546938    1.772639    ( 0.0000,  0.0000,  0.0000)
  28 C      2.659334    4.433008    2.659334    ( 0.0000,  0.0000,  0.0000)
  29 C      0.885452    4.434520    0.885452    ( 0.0000,  0.0000,  0.0000)
  30 C      0.886445    6.206956    2.658540    ( 0.0000,  0.0000,  0.0000)
  31 C      2.658540    6.206956    0.886445    ( 0.0000,  0.0000,  0.0000)
  32 C     -0.001669    3.546694    3.546694    ( 0.0000,  0.0000,  0.0000)
  33 C     -0.002583    5.319921    5.319921    ( 0.0000,  0.0000,  0.0000)
  34 C      1.771768    5.319199    3.545991    ( 0.0000,  0.0000,  0.0000)
  35 C      1.771768    3.545991    5.319199    ( 0.0000,  0.0000,  0.0000)
  36 C      2.657674    4.432033    6.205470    ( 0.0000,  0.0000,  0.0000)
  37 C      0.884954    4.433087    4.433087    ( 0.0000,  0.0000,  0.0000)
  38 C      0.883451    6.206763    6.206763    ( 0.0000,  0.0000,  0.0000)
  39 C      2.657674    6.205470    4.432033    ( 0.0000,  0.0000,  0.0000)
  40 C      0.000014    3.545859    7.091609    ( 0.0000,  0.0000,  0.0000)
  41 C     -0.010700    5.330071    8.863338    ( 0.0000,  0.0000,  0.0000)
  42 C      1.771117    5.320902    7.092299    ( 0.0000,  0.0000,  0.0000)
  43 C      1.770943    3.548938    8.865634    ( 0.0000,  0.0000,  0.0000)
  44 C      2.658959    4.434080    9.751333    ( 0.0000,  0.0000,  0.0000)
  45 C      0.881582    4.437692    7.977967    ( 0.0000,  0.0000,  0.0000)
  46 C      0.885071    6.209040    9.751980    ( 0.0000,  0.0000,  0.0000)
  47 C      2.660173    6.206484    7.978018    ( 0.0000,  0.0000,  0.0000)
  48 C      0.005597    7.096195    0.005597    ( 0.0000,  0.0000,  0.0000)
  49 C      0.000909    8.866874    1.776657    ( 0.0000,  0.0000,  0.0000)
  50 C      1.776657    8.866874    0.000909    ( 0.0000,  0.0000,  0.0000)
  51 C      1.773012    7.093113    1.773012    ( 0.0000,  0.0000,  0.0000)
  52 C      2.657417    7.978135    2.657417    ( 0.0000,  0.0000,  0.0000)
  53 C      0.889792    7.980502    0.889792    ( 0.0000,  0.0000,  0.0000)
  54 C      0.886233    9.752379    2.662759    ( 0.0000,  0.0000,  0.0000)
  55 C      2.662759    9.752379    0.886233    ( 0.0000,  0.0000,  0.0000)
  56 C      0.000014    7.091609    3.545859    ( 0.0000,  0.0000,  0.0000)
  57 C     -0.010700    8.863338    5.330071    ( 0.0000,  0.0000,  0.0000)
  58 C      1.770943    8.865634    3.548938    ( 0.0000,  0.0000,  0.0000)
  59 C      1.771117    7.092299    5.320902    ( 0.0000,  0.0000,  0.0000)
  60 C      2.660173    7.978018    6.206484    ( 0.0000,  0.0000,  0.0000)
  61 C      0.881582    7.977967    4.437692    ( 0.0000,  0.0000,  0.0000)
  62 C      0.885071    9.751980    6.209040    ( 0.0000,  0.0000,  0.0000)
  63 C      2.658959    9.751333    4.434080    ( 0.0000,  0.0000,  0.0000)
  64 C     -0.005349    7.094062    7.094062    ( 0.0000,  0.0000,  0.0000)
  65 C      0.007882    8.871270    8.871270    ( 0.0000,  0.0000,  0.0000)
  66 C      1.773973    8.865184    7.093341    ( 0.0000,  0.0000,  0.0000)
  67 C      1.773973    7.093341    8.865184    ( 0.0000,  0.0000,  0.0000)
  68 C      2.662178    7.979334    9.751729    ( 0.0000,  0.0000,  0.0000)
  69 C      0.887169    7.980595    7.980595    ( 0.0000,  0.0000,  0.0000)
  70 C      0.891775    9.755494    9.755494    ( 0.0000,  0.0000,  0.0000)
  71 C      2.662178    9.751729    7.979334    ( 0.0000,  0.0000,  0.0000)
  72 C      3.550221   -0.001720   -0.001720    ( 0.0000,  0.0000,  0.0000)
  73 C      3.546938    1.772639    1.772639    ( 0.0000,  0.0000,  0.0000)
  74 C      5.320396    1.772014   -0.001514    ( 0.0000,  0.0000,  0.0000)
  75 C      5.320396   -0.001514    1.772014    ( 0.0000,  0.0000,  0.0000)
  76 C      6.206956    0.886445    2.658540    ( 0.0000,  0.0000,  0.0000)
  77 C      4.434520    0.885452    0.885452    ( 0.0000,  0.0000,  0.0000)
  78 C      4.433008    2.659334    2.659334    ( 0.0000,  0.0000,  0.0000)
  79 C      6.206956    2.658540    0.886445    ( 0.0000,  0.0000,  0.0000)
  80 C      3.546694   -0.001669    3.546694    ( 0.0000,  0.0000,  0.0000)
  81 C      3.545991    1.771768    5.319199    ( 0.0000,  0.0000,  0.0000)
  82 C      5.319199    1.771768    3.545991    ( 0.0000,  0.0000,  0.0000)
  83 C      5.319921   -0.002583    5.319921    ( 0.0000,  0.0000,  0.0000)
  84 C      6.206763    0.883451    6.206763    ( 0.0000,  0.0000,  0.0000)
  85 C      4.433087    0.884954    4.433087    ( 0.0000,  0.0000,  0.0000)
  86 C      4.432033    2.657674    6.205470    ( 0.0000,  0.0000,  0.0000)
  87 C      6.205470    2.657674    4.432033    ( 0.0000,  0.0000,  0.0000)
  88 C      3.545859    0.000014    7.091609    ( 0.0000,  0.0000,  0.0000)
  89 C      3.548938    1.770943    8.865634    ( 0.0000,  0.0000,  0.0000)
  90 C      5.320902    1.771117    7.092299    ( 0.0000,  0.0000,  0.0000)
  91 C      5.330071   -0.010700    8.863338    ( 0.0000,  0.0000,  0.0000)
  92 C      6.209040    0.885071    9.751980    ( 0.0000,  0.0000,  0.0000)
  93 C      4.437692    0.881582    7.977967    ( 0.0000,  0.0000,  0.0000)
  94 C      4.434080    2.658959    9.751333    ( 0.0000,  0.0000,  0.0000)
  95 C      6.206484    2.660173    7.978018    ( 0.0000,  0.0000,  0.0000)
  96 C      3.546694    3.546694   -0.001669    ( 0.0000,  0.0000,  0.0000)
  97 C      3.545991    5.319199    1.771768    ( 0.0000,  0.0000,  0.0000)
  98 C      5.319921    5.319921   -0.002583    ( 0.0000,  0.0000,  0.0000)
  99 C      5.319199    3.545991    1.771768    ( 0.0000,  0.0000,  0.0000)
 100 C      6.205470    4.432033    2.657674    ( 0.0000,  0.0000,  0.0000)
 101 C      4.433087    4.433087    0.884954    ( 0.0000,  0.0000,  0.0000)
 102 C      4.432033    6.205470    2.657674    ( 0.0000,  0.0000,  0.0000)
 103 C      6.206763    6.206763    0.883451    ( 0.0000,  0.0000,  0.0000)
 104 C      3.546165    3.546165    3.546165    ( 0.0000,  0.0000,  0.0000)
 105 C      3.546493    5.320207    5.320207    ( 0.0000,  0.0000,  0.0000)
 106 C      5.320207    5.320207    3.546493    ( 0.0000,  0.0000,  0.0000)
 107 C      5.320207    3.546493    5.320207    ( 0.0000,  0.0000,  0.0000)
 108 C      6.204957    4.435216    6.204957    ( 0.0000,  0.0000,  0.0000)
 109 C      4.432681    4.432681    4.432681    ( 0.0000,  0.0000,  0.0000)
 110 C      4.435216    6.204957    6.204957    ( 0.0000,  0.0000,  0.0000)
 111 C      6.204957    6.204957    4.435216    ( 0.0000,  0.0000,  0.0000)
 112 C      3.540875    3.540875    7.092749    ( 0.0000,  0.0000,  0.0000)
 113 C      3.546107    5.318967    8.863917    ( 0.0000,  0.0000,  0.0000)
 114 C      5.319652    5.319652    7.095926    ( 0.0000,  0.0000,  0.0000)
 115 C      5.318967    3.546107    8.863917    ( 0.0000,  0.0000,  0.0000)
 116 C      6.209079    4.430145    9.754367    ( 0.0000,  0.0000,  0.0000)
 117 C      4.423602    4.423602    7.973369    ( 0.0000,  0.0000,  0.0000)
 118 C      4.430145    6.209079    9.754367    ( 0.0000,  0.0000,  0.0000)
 119 C      6.145582    6.145582    8.012744    ( 0.0000,  0.0000,  0.0000)
 120 C      3.545859    7.091609    0.000014    ( 0.0000,  0.0000,  0.0000)
 121 C      3.548938    8.865634    1.770943    ( 0.0000,  0.0000,  0.0000)
 122 C      5.330071    8.863338   -0.010700    ( 0.0000,  0.0000,  0.0000)
 123 C      5.320902    7.092299    1.771117    ( 0.0000,  0.0000,  0.0000)
 124 C      6.206484    7.978018    2.660173    ( 0.0000,  0.0000,  0.0000)
 125 C      4.437692    7.977967    0.881582    ( 0.0000,  0.0000,  0.0000)
 126 C      4.434080    9.751333    2.658959    ( 0.0000,  0.0000,  0.0000)
 127 C      6.209040    9.751980    0.885071    ( 0.0000,  0.0000,  0.0000)
 128 C      3.540875    7.092749    3.540875    ( 0.0000,  0.0000,  0.0000)
 129 C      3.546107    8.863917    5.318967    ( 0.0000,  0.0000,  0.0000)
 130 C      5.318967    8.863917    3.546107    ( 0.0000,  0.0000,  0.0000)
 131 C      5.319652    7.095926    5.319652    ( 0.0000,  0.0000,  0.0000)
 132 C      6.145582    8.012744    6.145582    ( 0.0000,  0.0000,  0.0000)
 133 C      4.423602    7.973369    4.423602    ( 0.0000,  0.0000,  0.0000)
 134 C      4.430145    9.754367    6.209079    ( 0.0000,  0.0000,  0.0000)
 135 C      6.209079    9.754367    4.430145    ( 0.0000,  0.0000,  0.0000)
 136 C      3.550030    7.090855    7.090855    ( 0.0000,  0.0000,  0.0000)
 137 C      3.552115    8.861877    8.861877    ( 0.0000,  0.0000,  0.0000)
 138 C      5.332666    8.847031    7.083222    ( 0.0000,  0.0000,  0.0000)
 139 C      5.332666    7.083222    8.847031    ( 0.0000,  0.0000,  0.0000)
 140 C      6.223423    7.971641    9.734620    ( 0.0000,  0.0000,  0.0000)
 141 C      4.440870    7.974370    7.974370    ( 0.0000,  0.0000,  0.0000)
 142 C      4.438713    9.748724    9.748724    ( 0.0000,  0.0000,  0.0000)
 143 C      6.223423    9.734620    7.971641    ( 0.0000,  0.0000,  0.0000)
 144 C      7.096195    0.005597    0.005597    ( 0.0000,  0.0000,  0.0000)
 145 C      7.093113    1.773012    1.773012    ( 0.0000,  0.0000,  0.0000)
 146 C      8.866874    1.776657    0.000909    ( 0.0000,  0.0000,  0.0000)
 147 C      8.866874    0.000909    1.776657    ( 0.0000,  0.0000,  0.0000)
 148 C      9.752379    0.886233    2.662759    ( 0.0000,  0.0000,  0.0000)
 149 C      7.980502    0.889792    0.889792    ( 0.0000,  0.0000,  0.0000)
 150 C      7.978135    2.657417    2.657417    ( 0.0000,  0.0000,  0.0000)
 151 C      9.752379    2.662759    0.886233    ( 0.0000,  0.0000,  0.0000)
 152 C      7.091609    0.000014    3.545859    ( 0.0000,  0.0000,  0.0000)
 153 C      7.092299    1.771117    5.320902    ( 0.0000,  0.0000,  0.0000)
 154 C      8.865634    1.770943    3.548938    ( 0.0000,  0.0000,  0.0000)
 155 C      8.863338   -0.010700    5.330071    ( 0.0000,  0.0000,  0.0000)
 156 C      9.751980    0.885071    6.209040    ( 0.0000,  0.0000,  0.0000)
 157 C      7.977967    0.881582    4.437692    ( 0.0000,  0.0000,  0.0000)
 158 C      7.978018    2.660173    6.206484    ( 0.0000,  0.0000,  0.0000)
 159 C      9.751333    2.658959    4.434080    ( 0.0000,  0.0000,  0.0000)
 160 C      7.094062   -0.005349    7.094062    ( 0.0000,  0.0000,  0.0000)
 161 C      7.093341    1.773973    8.865184    ( 0.0000,  0.0000,  0.0000)
 162 C      8.865184    1.773973    7.093341    ( 0.0000,  0.0000,  0.0000)
 163 C      8.871270    0.007882    8.871270    ( 0.0000,  0.0000,  0.0000)
 164 C      9.755494    0.891775    9.755494    ( 0.0000,  0.0000,  0.0000)
 165 C      7.980595    0.887169    7.980595    ( 0.0000,  0.0000,  0.0000)
 166 C      7.979334    2.662178    9.751729    ( 0.0000,  0.0000,  0.0000)
 167 C      9.751729    2.662178    7.979334    ( 0.0000,  0.0000,  0.0000)
 168 C      7.091609    3.545859    0.000014    ( 0.0000,  0.0000,  0.0000)
 169 C      7.092299    5.320902    1.771117    ( 0.0000,  0.0000,  0.0000)
 170 C      8.863338    5.330071   -0.010700    ( 0.0000,  0.0000,  0.0000)
 171 C      8.865634    3.548938    1.770943    ( 0.0000,  0.0000,  0.0000)
 172 C      9.751333    4.434080    2.658959    ( 0.0000,  0.0000,  0.0000)
 173 C      7.977967    4.437692    0.881582    ( 0.0000,  0.0000,  0.0000)
 174 C      7.978018    6.206484    2.660173    ( 0.0000,  0.0000,  0.0000)
 175 C      9.751980    6.209040    0.885071    ( 0.0000,  0.0000,  0.0000)
 176 C      7.092749    3.540875    3.540875    ( 0.0000,  0.0000,  0.0000)
 177 C      7.095926    5.319652    5.319652    ( 0.0000,  0.0000,  0.0000)
 178 C      8.863917    5.318967    3.546107    ( 0.0000,  0.0000,  0.0000)
 179 C      8.863917    3.546107    5.318967    ( 0.0000,  0.0000,  0.0000)
 180 C      9.754367    4.430145    6.209079    ( 0.0000,  0.0000,  0.0000)
 181 C      7.973369    4.423602    4.423602    ( 0.0000,  0.0000,  0.0000)
 182 C      8.012744    6.145582    6.145582    ( 0.0000,  0.0000,  0.0000)
 183 C      9.754367    6.209079    4.430145    ( 0.0000,  0.0000,  0.0000)
 184 C      7.090855    3.550030    7.090855    ( 0.0000,  0.0000,  0.0000)
 185 C      7.083222    5.332666    8.847031    ( 0.0000,  0.0000,  0.0000)
 186 C      8.847031    5.332666    7.083222    ( 0.0000,  0.0000,  0.0000)
 187 C      8.861877    3.552115    8.861877    ( 0.0000,  0.0000,  0.0000)
 188 C      9.748724    4.438713    9.748724    ( 0.0000,  0.0000,  0.0000)
 189 C      7.974370    4.440870    7.974370    ( 0.0000,  0.0000,  0.0000)
 190 C      7.971641    6.223423    9.734620    ( 0.0000,  0.0000,  0.0000)
 191 C      9.734620    6.223423    7.971641    ( 0.0000,  0.0000,  0.0000)
 192 C      7.094062    7.094062   -0.005349    ( 0.0000,  0.0000,  0.0000)
 193 C      7.093341    8.865184    1.773973    ( 0.0000,  0.0000,  0.0000)
 194 C      8.871270    8.871270    0.007882    ( 0.0000,  0.0000,  0.0000)
 195 C      8.865184    7.093341    1.773973    ( 0.0000,  0.0000,  0.0000)
 196 C      9.751729    7.979334    2.662178    ( 0.0000,  0.0000,  0.0000)
 197 C      7.980595    7.980595    0.887169    ( 0.0000,  0.0000,  0.0000)
 198 C      7.979334    9.751729    2.662178    ( 0.0000,  0.0000,  0.0000)
 199 C      9.755494    9.755494    0.891775    ( 0.0000,  0.0000,  0.0000)
 200 C      7.090855    7.090855    3.550030    ( 0.0000,  0.0000,  0.0000)
 201 C      7.083222    8.847031    5.332666    ( 0.0000,  0.0000,  0.0000)
 202 C      8.861877    8.861877    3.552115    ( 0.0000,  0.0000,  0.0000)
 203 C      8.847031    7.083222    5.332666    ( 0.0000,  0.0000,  0.0000)
 204 C      9.734620    7.971641    6.223423    ( 0.0000,  0.0000,  0.0000)
 205 C      7.974370    7.974370    4.440870    ( 0.0000,  0.0000,  0.0000)
 206 C      7.971641    9.734620    6.223423    ( 0.0000,  0.0000,  0.0000)
 207 C      9.748724    9.748724    4.438713    ( 0.0000,  0.0000,  0.0000)
 208 C      7.136597    8.864770    8.864770    ( 0.0000,  0.0000,  0.0000)
 209 C      8.864770    8.864770    7.136597    ( 0.0000,  0.0000,  0.0000)
 210 C      8.864770    7.136597    8.864770    ( 0.0000,  0.0000,  0.0000)
 211 C      9.766565    7.984371    9.766565    ( 0.0000,  0.0000,  0.0000)
 212 N      8.067138    8.067138    8.067138    ( 0.0000,  0.0000,  0.0000)
 213 C      7.984371    9.766565    9.766565    ( 0.0000,  0.0000,  0.0000)
 214 C      9.766565    9.766565    7.984371    ( 0.0000,  0.0000,  0.0000)

Unit cell:
           periodic     x           y           z      points  spacing
  1. axis:    yes   10.639295    0.000000    0.000000    63     0.1689
  2. axis:    yes    0.000000   10.639295    0.000000    63     0.1689
  3. axis:    yes    0.000000    0.000000   10.639295    63     0.1689

  Lengths:  10.639295  10.639295  10.639295
  Angles:   90.000000  90.000000  90.000000

Effective grid spacing dv^(1/3) = 0.1689

     iter     time        total  log10-change:  magmom
                         energy   eigst   dens
iter:   1 23:33:28 -2009.080496   +1.05  -2.05    +0.0000
iter:   2 23:40:42 -2045.893052   +0.92  -2.06    +0.0000
iter:   3 23:47:56 -2078.088302   +0.75  -2.08    -0.0000
iter:   4 23:55:10 -2104.700362   +0.55  -2.09    +0.0000
iter:   5 00:02:24 -2125.180781   +0.27  -2.10    -0.0000
iter:   6 00:09:39 -2139.354938   -0.13  -2.12    +0.0000
iter:   7 00:16:53 -2147.236762   -0.90  -2.13    -0.0000
iter:   8 00:24:08 -2151.486691   -2.47  -2.31    +0.0000
iter:   9 00:31:22 -2156.246303   -2.74  -3.85    +0.0000
iter:  10 00:38:36 -2156.625506   -2.77  -3.24    -0.0000
iter:  11 00:45:51 -2156.340167c  -2.55  -3.55    -0.0000
iter:  12 00:53:05 -2156.210799c  -2.80  -4.02c   +0.0000
iter:  13 01:00:19 -2156.178251c  -3.02  -3.72    -0.0000
iter:  14 01:07:34 -2156.168049c  -2.45  -3.45    -0.0000
iter:  15 01:14:48 -2156.194836c  -2.06  -3.29    -0.0000
iter:  16 01:22:02 -2156.217589c  -1.81  -3.25    +0.0000
iter:  17 01:29:17 -2156.318889c  -1.69  -3.28    -0.0000
iter:  18 01:36:31 -2156.745648   -1.85  -3.24    +0.0000
iter:  19 01:43:46 -2157.011840   -1.96  -3.21    -0.0000
iter:  20 01:51:00 -2157.183166   -2.01  -3.40    +0.0000
iter:  21 01:58:14 -2156.919185c  -2.20  -3.28    +0.0000
iter:  22 02:05:29 -2157.034175c  -2.15  -3.32    -0.0000
iter:  23 02:12:44 -2157.396510   -2.62  -3.44    +0.0000
iter:  24 02:19:58 -2157.320955c  -3.01  -3.56    -0.0000
iter:  25 02:27:12 -2157.117245c  -2.81  -3.81    -0.0000
iter:  26 02:34:26 -2157.128105c  -3.18  -3.76    -0.0000
iter:  27 02:41:40 -2157.247886c  -3.37  -4.14c   +0.0000
iter:  28 02:48:54 -2157.331779c  -3.83  -4.06c   -0.0000
iter:  29 02:56:08 -2157.303994c  -3.72  -4.06c   -0.0000
iter:  30 03:03:23 -2157.261350c  -4.19  -4.37c   +0.0000
iter:  31 03:10:37 -2157.257488c  -4.58  -4.75c   -0.0000
iter:  32 03:17:51 -2157.249451c  -4.77  -4.80c   +0.0000
iter:  33 03:25:05 -2157.246215c  -5.23  -4.56c   -0.0000
iter:  34 03:32:20 -2157.263244c  -4.70  -4.49c   +0.0000
iter:  35 03:39:34 -2157.265640c  -5.15  -4.73c   -0.0000
iter:  36 03:46:49 -2157.264853c  -5.39  -5.49c   -0.0000
iter:  37 03:54:03 -2157.267226c  -6.05  -5.14c   -0.0000
iter:  38 04:01:17 -2157.263604c  -5.93  -5.32c   -0.0000
iter:  39 04:08:32 -2157.261851c  -6.36  -5.24c   -0.0000
iter:  40 04:15:46 -2157.262068c  -6.35  -5.12c   +0.0000
iter:  41 04:23:00 -2157.262232c  -6.76  -5.42c   -0.0000
iter:  42 04:30:14 -2157.262284c  -6.99  -6.06c   +0.0000
iter:  43 04:37:28 -2157.261436c  -7.10  -5.65c   +0.0000
iter:  44 04:44:43 -2157.263070c  -7.17  -5.84c   -0.0000
iter:  45 04:51:57 -2157.262111c  -7.28  -5.54c   +0.0000
iter:  46 04:59:12 -2157.263603c  -7.75c -5.89c   -0.0000

Occupied states converged after 47 e/g evaluations
Unoccupied states are not converged.

Converged after 46 iterations.

Dipole moment: (0.746113, 0.873790, 0.869135) |e|*Ang

Total magnetic moment: (0.000000, 0.000000, -0.000000)
Local magnetic moments:
   0 C  ( 0.000000,  0.000000, -0.000000)
   1 C  ( 0.000000,  0.000000,  0.000000)
   2 C  ( 0.000000,  0.000000,  0.000015)
   3 C  ( 0.000000,  0.000000, -0.000015)
   4 C  ( 0.000000,  0.000000,  0.000256)
   5 C  ( 0.000000,  0.000000,  0.000000)
   6 C  ( 0.000000,  0.000000, -0.000005)
   7 C  ( 0.000000,  0.000000, -0.000252)
   8 C  ( 0.000000,  0.000000, -0.000105)
   9 C  ( 0.000000,  0.000000, -0.000019)
  10 C  ( 0.000000,  0.000000, -0.000028)
  11 C  ( 0.000000,  0.000000, -0.000054)
  12 C  ( 0.000000,  0.000000,  0.001328)
  13 C  ( 0.000000,  0.000000,  0.000041)
  14 C  ( 0.000000,  0.000000,  0.000425)
  15 C  ( 0.000000,  0.000000,  0.000062)
  16 C  ( 0.000000,  0.000000, -0.000241)
  17 C  ( 0.000000,  0.000000,  0.000014)
  18 C  ( 0.000000,  0.000000,  0.000282)
  19 C  ( 0.000000,  0.000000,  0.000025)
  20 C  ( 0.000000,  0.000000, -0.000059)
  21 C  ( 0.000000,  0.000000, -0.000207)
  22 C  ( 0.000000,  0.000000, -0.000034)
  23 C  ( 0.000000,  0.000000, -0.001102)
  24 C  ( 0.000000,  0.000000,  0.000107)
  25 C  ( 0.000000,  0.000000,  0.000021)
  26 C  ( 0.000000,  0.000000,  0.000055)
  27 C  ( 0.000000,  0.000000,  0.000029)
  28 C  ( 0.000000,  0.000000, -0.000063)
  29 C  ( 0.000000,  0.000000, -0.000041)
  30 C  ( 0.000000,  0.000000, -0.000470)
  31 C  ( 0.000000,  0.000000, -0.001320)
  32 C  ( 0.000000,  0.000000,  0.000002)
  33 C  ( 0.000000,  0.000000,  0.000026)
  34 C  ( 0.000000,  0.000000, -0.000037)
  35 C  ( 0.000000,  0.000000,  0.000040)
  36 C  ( 0.000000,  0.000000,  0.000002)
  37 C  ( 0.000000,  0.000000, -0.000020)
  38 C  ( 0.000000,  0.000000, -0.000007)
  39 C  ( 0.000000,  0.000000, -0.000003)
  40 C  ( 0.000000,  0.000000,  0.001567)
  41 C  ( 0.000000,  0.000000, -0.000155)
  42 C  ( 0.000000,  0.000000,  0.000029)
  43 C  ( 0.000000,  0.000000,  0.000096)
  44 C  ( 0.000000,  0.000000, -0.000884)
  45 C  ( 0.000000,  0.000000, -0.000075)
  46 C  ( 0.000000,  0.000000,  0.000003)
  47 C  ( 0.000000,  0.000000, -0.000076)
  48 C  ( 0.000000,  0.000000,  0.000248)
  49 C  ( 0.000000,  0.000000, -0.000015)
  50 C  ( 0.000000,  0.000000, -0.000025)
  51 C  ( 0.000000,  0.000000, -0.000286)
  52 C  ( 0.000000,  0.000000,  0.001126)
  53 C  ( 0.000000,  0.000000,  0.000213)
  54 C  ( 0.000000,  0.000000,  0.000036)
  55 C  ( 0.000000,  0.000000,  0.000059)
  56 C  ( 0.000000,  0.000000, -0.001656)
  57 C  ( 0.000000,  0.000000,  0.000171)
  58 C  ( 0.000000,  0.000000, -0.000096)
  59 C  ( 0.000000,  0.000000, -0.000029)
  60 C  ( 0.000000,  0.000000,  0.000104)
  61 C  ( 0.000000,  0.000000,  0.000077)
  62 C  ( 0.000000,  0.000000, -0.000002)
  63 C  ( 0.000000,  0.000000,  0.000907)
  64 C  ( 0.000000,  0.000000,  0.000011)
  65 C  ( 0.000000,  0.000000,  0.000000)
  66 C  ( 0.000000,  0.000000, -0.000008)
  67 C  ( 0.000000,  0.000000,  0.000008)
  68 C  ( 0.000000,  0.000000,  0.000102)
  69 C  ( 0.000000,  0.000000, -0.000007)
  70 C  ( 0.000000,  0.000000, -0.000000)
  71 C  ( 0.000000,  0.000000, -0.000102)
  72 C  ( 0.000000,  0.000000, -0.000002)
  73 C  ( 0.000000,  0.000000, -0.000000)
  74 C  ( 0.000000,  0.000000,  0.000033)
  75 C  ( 0.000000,  0.000000, -0.000034)
  76 C  ( 0.000000,  0.000000,  0.000883)
  77 C  ( 0.000000,  0.000000,  0.000001)
  78 C  ( 0.000000,  0.000000,  0.000001)
  79 C  ( 0.000000,  0.000000, -0.000849)
  80 C  ( 0.000000,  0.000000, -0.000094)
  81 C  ( 0.000000,  0.000000, -0.000057)
  82 C  ( 0.000000,  0.000000, -0.000092)
  83 C  ( 0.000000,  0.000000, -0.001291)
  84 C  ( 0.000000,  0.000000,  0.000413)
  85 C  ( 0.000000,  0.000000,  0.000999)
  86 C  ( 0.000000,  0.000000,  0.000050)
  87 C  ( 0.000000,  0.000000,  0.000045)
  88 C  ( 0.000000,  0.000000,  0.002935)
  89 C  ( 0.000000,  0.000000,  0.000046)
  90 C  ( 0.000000,  0.000000,  0.000036)
  91 C  ( 0.000000,  0.000000, -0.000495)
  92 C  ( 0.000000,  0.000000, -0.000037)
  93 C  ( 0.000000,  0.000000, -0.000102)
  94 C  ( 0.000000,  0.000000, -0.001005)
  95 C  ( 0.000000,  0.000000, -0.000762)
  96 C  ( 0.000000,  0.000000,  0.000092)
  97 C  ( 0.000000,  0.000000,  0.000055)
  98 C  ( 0.000000,  0.000000,  0.001265)
  99 C  ( 0.000000,  0.000000,  0.000092)
 100 C  ( 0.000000,  0.000000, -0.000043)
 101 C  ( 0.000000,  0.000000, -0.000978)
 102 C  ( 0.000000,  0.000000, -0.000048)
 103 C  ( 0.000000,  0.000000, -0.000403)
 104 C  ( 0.000000,  0.000000,  0.000001)
 105 C  ( 0.000000,  0.000000, -0.000012)
 106 C  ( 0.000000,  0.000000, -0.000550)
 107 C  ( 0.000000,  0.000000,  0.000559)
 108 C  ( 0.000000,  0.000000, -0.001768)
 109 C  ( 0.000000,  0.000000,  0.000003)
 110 C  ( 0.000000,  0.000000,  0.000033)
 111 C  ( 0.000000,  0.000000,  0.001728)
 112 C  ( 0.000000,  0.000000, -0.001595)
 113 C  ( 0.000000,  0.000000,  0.001218)
 114 C  ( 0.000000,  0.000000,  0.008733)
 115 C  ( 0.000000,  0.000000,  0.001285)
 116 C  ( 0.000000,  0.000000, -0.015219)
 117 C  ( 0.000000,  0.000000, -0.015804)
 118 C  ( 0.000000,  0.000000, -0.017426)
 119 C  ( 0.000000,  0.000000, -0.247899)
 120 C  ( 0.000000,  0.000000, -0.002945)
 121 C  ( 0.000000,  0.000000, -0.000049)
 122 C  ( 0.000000,  0.000000,  0.000492)
 123 C  ( 0.000000,  0.000000, -0.000036)
 124 C  ( 0.000000,  0.000000,  0.000749)
 125 C  ( 0.000000,  0.000000,  0.000103)
 126 C  ( 0.000000,  0.000000,  0.001020)
 127 C  ( 0.000000,  0.000000,  0.000036)
 128 C  ( 0.000000,  0.000000,  0.001635)
 129 C  ( 0.000000,  0.000000, -0.001246)
 130 C  ( 0.000000,  0.000000, -0.001308)
 131 C  ( 0.000000,  0.000000, -0.008877)
 132 C  ( 0.000000,  0.000000,  0.252707)
 133 C  ( 0.000000,  0.000000,  0.016126)
 134 C  ( 0.000000,  0.000000,  0.017685)
 135 C  ( 0.000000,  0.000000,  0.015604)
 136 C  ( 0.000000,  0.000000, -0.000009)
 137 C  ( 0.000000,  0.000000, -0.000006)
 138 C  ( 0.000000,  0.000000, -0.007055)
 139 C  ( 0.000000,  0.000000,  0.006721)
 140 C  ( 0.000000,  0.000000, -0.002819)
 141 C  ( 0.000000,  0.000000,  0.000050)
 142 C  ( 0.000000,  0.000000, -0.000001)
 143 C  ( 0.000000,  0.000000,  0.002899)
 144 C  ( 0.000000,  0.000000, -0.000004)
 145 C  ( 0.000000,  0.000000,  0.000007)
 146 C  ( 0.000000,  0.000000, -0.000010)
 147 C  ( 0.000000,  0.000000,  0.000011)
 148 C  ( 0.000000,  0.000000, -0.000024)
 149 C  ( 0.000000,  0.000000, -0.000004)
 150 C  ( 0.000000,  0.000000, -0.000022)
 151 C  ( 0.000000,  0.000000,  0.000022)
 152 C  ( 0.000000,  0.000000,  0.001315)
 153 C  ( 0.000000,  0.000000,  0.000008)
 154 C  ( 0.000000,  0.000000, -0.000048)
 155 C  ( 0.000000,  0.000000, -0.000333)
 156 C  ( 0.000000,  0.000000, -0.000037)
 157 C  ( 0.000000,  0.000000, -0.000027)
 158 C  ( 0.000000,  0.000000, -0.000677)
 159 C  ( 0.000000,  0.000000, -0.000134)
 160 C  ( 0.000000,  0.000000, -0.000516)
 161 C  ( 0.000000,  0.000000,  0.000041)
 162 C  ( 0.000000,  0.000000,  0.000033)
 163 C  ( 0.000000,  0.000000, -0.000002)
 164 C  ( 0.000000,  0.000000,  0.000032)
 165 C  ( 0.000000,  0.000000,  0.000314)
 166 C  ( 0.000000,  0.000000,  0.000052)
 167 C  ( 0.000000,  0.000000, -0.000050)
 168 C  ( 0.000000,  0.000000, -0.001228)
 169 C  ( 0.000000,  0.000000, -0.000007)
 170 C  ( 0.000000,  0.000000,  0.000320)
 171 C  ( 0.000000,  0.000000,  0.000051)
 172 C  ( 0.000000,  0.000000,  0.000096)
 173 C  ( 0.000000,  0.000000,  0.000023)
 174 C  ( 0.000000,  0.000000,  0.000659)
 175 C  ( 0.000000,  0.000000,  0.000037)
 176 C  ( 0.000000,  0.000000, -0.000029)
 177 C  ( 0.000000,  0.000000,  0.000192)
 178 C  ( 0.000000,  0.000000, -0.000047)
 179 C  ( 0.000000,  0.000000,  0.000097)
 180 C  ( 0.000000,  0.000000,  0.001710)
 181 C  ( 0.000000,  0.000000, -0.000322)
 182 C  ( 0.000000,  0.000000, -0.005167)
 183 C  ( 0.000000,  0.000000, -0.002385)
 184 C  ( 0.000000,  0.000000,  0.000468)
 185 C  ( 0.000000,  0.000000,  0.011535)
 186 C  ( 0.000000,  0.000000,  0.004627)
 187 C  ( 0.000000,  0.000000,  0.000363)
 188 C  ( 0.000000,  0.000000,  0.000061)
 189 C  ( 0.000000,  0.000000, -0.002439)
 190 C  ( 0.000000,  0.000000, -0.003512)
 191 C  ( 0.000000,  0.000000, -0.000721)
 192 C  ( 0.000000,  0.000000,  0.000507)
 193 C  ( 0.000000,  0.000000, -0.000040)
 194 C  ( 0.000000,  0.000000,  0.000002)
 195 C  ( 0.000000,  0.000000, -0.000031)
 196 C  ( 0.000000,  0.000000,  0.000053)
 197 C  ( 0.000000,  0.000000, -0.000308)
 198 C  ( 0.000000,  0.000000, -0.000054)
 199 C  ( 0.000000,  0.000000, -0.000031)
 200 C  ( 0.000000,  0.000000, -0.000457)
 201 C  ( 0.000000,  0.000000, -0.011598)
 202 C  ( 0.000000,  0.000000, -0.000354)
 203 C  ( 0.000000,  0.000000, -0.004270)
 204 C  ( 0.000000,  0.000000,  0.000588)
 205 C  ( 0.000000,  0.000000,  0.002392)
 206 C  ( 0.000000,  0.000000,  0.003554)
 207 C  ( 0.000000,  0.000000, -0.000058)
 208 C  ( 0.000000,  0.000000, -0.000030)
 209 C  ( 0.000000,  0.000000, -0.001274)
 210 C  ( 0.000000,  0.000000,  0.001293)
 211 C  ( 0.000000,  0.000000,  0.000125)
 212 N  ( 0.000000,  0.000000,  0.000145)
 213 C  ( 0.000000,  0.000000,  0.000002)
 214 C  ( 0.000000,  0.000000, -0.000115)

Energy contributions relative to reference atoms: (reference = -221394.138216)

Kinetic:       +1741.952921
Potential:     -1571.475135
External:        +0.000000
XC:            -2330.586694
Entropy (-ST):   +0.000000
Local:           +2.846070
SIC:             +0.000000
--------------------------
Free energy:   -2157.262839
Extrapolated:  -2157.262839

HYB_GGA_XC_HSE06 + 0.25 * EXX(omega = 0.11 bohr^-1)
Short-range Coulomb: erfc(omega*r)/r (omega = 0.11 bohr^-1)
Spin contamination: 0.926212 electrons
                   Up                     Down
 Band  Eigenvalues  Occupancy  Eigenvalues  Occupancy
    0    -12.12292    1.00000    -12.12288    1.00000
    1    -11.22314    1.00000    -11.22308    1.00000
    2    -11.02114    1.00000    -11.02111    1.00000
    3    -11.01867    1.00000    -11.01866    1.00000
    4    -10.97869    1.00000    -10.97819    1.00000
    5    -10.96669    1.00000    -10.96701    1.00000
    6    -10.87692    1.00000    -10.87693    1.00000
    7    -10.30183    1.00000    -10.30176    1.00000
    8     -9.92693    1.00000     -9.92683    1.00000
    9     -9.92120    1.00000     -9.92125    1.00000
   10     -9.91687    1.00000     -9.91680    1.00000
   11     -9.91374    1.00000     -9.91378    1.00000
   12     -9.90104    1.00000     -9.90098    1.00000
   13     -9.88024    1.00000     -9.87981    1.00000
   14     -9.86799    1.00000     -9.86812    1.00000
   15     -9.86198    1.00000     -9.86198    1.00000
   16     -9.81743    1.00000     -9.81678    1.00000
   17     -9.79709    1.00000     -9.79771    1.00000
   18     -9.61477    1.00000     -9.61482    1.00000
   19     -9.07976    1.00000     -9.07971    1.00000
   20     -8.80533    1.00000     -8.80509    1.00000
   21     -8.79556    1.00000     -8.79529    1.00000
   22     -8.79125    1.00000     -8.79159    1.00000
   23     -8.77208    1.00000     -8.77153    1.00000
   24     -8.77016    1.00000     -8.77013    1.00000
   25     -8.75203    1.00000     -8.75249    1.00000
   26     -8.58148    1.00000     -8.58153    1.00000
   27     -7.91808    1.00000     -7.91794    1.00000
   28     -7.71117    1.00000     -7.71110    1.00000
   29     -7.70931    1.00000     -7.70936    1.00000
   30     -7.68873    1.00000     -7.68846    1.00000
   31     -7.67897    1.00000     -7.67913    1.00000
   32     -7.62172    1.00000     -7.62170    1.00000
   33     -7.26698    1.00000     -7.26685    1.00000
   34     -6.73587    1.00000     -6.73580    1.00000
   35     -6.73402    1.00000     -6.73390    1.00000
   36     -6.72951    1.00000     -6.72944    1.00000
   37     -6.72353    1.00000     -6.72341    1.00000
   38     -6.72200    1.00000     -6.72209    1.00000
   39     -6.71277    1.00000     -6.71280    1.00000
   40     -6.70789    1.00000     -6.70789    1.00000
   41     -6.70237    1.00000     -6.70239    1.00000
   42     -6.69910    1.00000     -6.69906    1.00000
   43     -6.69081    1.00000     -6.69065    1.00000
   44     -6.68773    1.00000     -6.68774    1.00000
   45     -6.68512    1.00000     -6.68508    1.00000
   46     -6.68104    1.00000     -6.68101    1.00000
   47     -6.67527    1.00000     -6.67532    1.00000
   48     -6.65619    1.00000     -6.65570    1.00000
   49     -6.64629    1.00000     -6.64628    1.00000
   50     -6.63887    1.00000     -6.63911    1.00000
   51     -6.63058    1.00000     -6.62991    1.00000
   52     -6.62698    1.00000     -6.62765    1.00000
   53     -6.60841    1.00000     -6.60843    1.00000
   54     -6.54507    1.00000     -6.54437    1.00000
   55     -6.51600    1.00000     -6.51666    1.00000
   56     -6.34611    1.00000     -6.34609    1.00000
   57     -6.13692    1.00000     -6.13687    1.00000
   58     -5.89444    1.00000     -5.89445    1.00000
   59     -5.89087    1.00000     -5.89081    1.00000
   60     -5.86138    1.00000     -5.86119    1.00000
   61     -5.86019    1.00000     -5.86027    1.00000
   62     -5.85809    1.00000     -5.85803    1.00000
   63     -5.84565    1.00000     -5.84565    1.00000
   64     -5.84388    1.00000     -5.84353    1.00000
   65     -5.83909    1.00000     -5.83914    1.00000
   66     -5.83421    1.00000     -5.83401    1.00000
   67     -5.82562    1.00000     -5.82573    1.00000
   68     -5.82154    1.00000     -5.82170    1.00000
   69     -5.80523    1.00000     -5.80521    1.00000
   70     -5.80333    1.00000     -5.80320    1.00000
   71     -5.79636    1.00000     -5.79631    1.00000
   72     -5.77743    1.00000     -5.77746    1.00000
   73     -5.77668    1.00000     -5.77669    1.00000
   74     -5.75628    1.00000     -5.75615    1.00000
   75     -5.74904    1.00000     -5.74916    1.00000
   76     -5.72095    1.00000     -5.72114    1.00000
   77     -5.69074    1.00000     -5.69077    1.00000
   78     -5.60392    1.00000     -5.60149    1.00000
   79     -5.50293    1.00000     -5.50526    1.00000
   80     -4.81130    1.00000     -4.81138    1.00000
   81     -4.19298    1.00000     -4.19293    1.00000
   82     -4.01474    1.00000     -4.01474    1.00000
   83     -4.01285    1.00000     -4.01284    1.00000
   84     -3.97743    1.00000     -3.97705    1.00000
   85     -3.97510    1.00000     -3.97512    1.00000
   86     -3.96842    1.00000     -3.96861    1.00000
   87     -3.96445    1.00000     -3.96442    1.00000
   88     -3.95607    1.00000     -3.95610    1.00000
   89     -3.94582    1.00000     -3.94585    1.00000
   90     -3.90859    1.00000     -3.90757    1.00000
   91     -3.86735    1.00000     -3.86834    1.00000
   92     -3.47895    1.00000     -3.47908    1.00000
   93     -2.62202    1.00000     -2.62187    1.00000
   94     -2.56797    1.00000     -2.56804    1.00000
   95     -2.56558    1.00000     -2.56548    1.00000
   96     -2.54140    1.00000     -2.54145    1.00000
   97     -2.54001    1.00000     -2.53990    1.00000
   98     -2.49872    1.00000     -2.49871    1.00000
   99     -2.25180    1.00000     -2.25159    1.00000
  100     -2.06723    1.00000     -2.06726    1.00000
  101     -2.05694    1.00000     -2.05685    1.00000
  102     -2.02499    1.00000     -2.02498    1.00000
  103     -2.02068    1.00000     -2.02066    1.00000
  104     -2.01262    1.00000     -2.01254    1.00000
  105     -2.01170    1.00000     -2.01171    1.00000
  106     -2.00848    1.00000     -2.00844    1.00000
  107     -2.00303    1.00000     -2.00301    1.00000
  108     -1.99715    1.00000     -1.99717    1.00000
  109     -1.98792    1.00000     -1.98760    1.00000
  110     -1.97813    1.00000     -1.97835    1.00000
  111     -1.97566    1.00000     -1.97564    1.00000
  112     -1.96983    1.00000     -1.96987    1.00000
  113     -1.95854    1.00000     -1.95829    1.00000
  114     -1.90981    1.00000     -1.90982    1.00000
  115     -1.90413    1.00000     -1.90422    1.00000
  116     -1.89579    1.00000     -1.89588    1.00000
  117     -1.88468    1.00000     -1.88458    1.00000
  118     -1.86731    1.00000     -1.86696    1.00000
  119     -1.84582    1.00000     -1.84630    1.00000
  120     -1.83998    1.00000     -1.83878    1.00000
  121     -1.81116    1.00000     -1.81184    1.00000
  122     -1.76512    1.00000     -1.76510    1.00000
  123     -1.73762    1.00000     -1.73757    1.00000
  124     -1.73551    1.00000     -1.73553    1.00000
  125     -1.72712    1.00000     -1.72713    1.00000
  126     -1.70960    1.00000     -1.70957    1.00000
  127     -1.70883    1.00000     -1.70872    1.00000
  128     -1.70565    1.00000     -1.70574    1.00000
  129     -1.70181    1.00000     -1.70175    1.00000
  130     -1.69886    1.00000     -1.69887    1.00000
  131     -1.69446    1.00000     -1.69454    1.00000
  132     -1.68319    1.00000     -1.68309    1.00000
  133     -1.67129    1.00000     -1.67132    1.00000
  134     -1.67069    1.00000     -1.67072    1.00000
  135     -1.65491    1.00000     -1.65479    1.00000
  136     -1.64960    1.00000     -1.64853    1.00000
  137     -1.64467    1.00000     -1.64393    1.00000
  138     -1.64103    1.00000     -1.64163    1.00000
  139     -1.63558    1.00000     -1.63561    1.00000
  140     -1.63020    1.00000     -1.63051    1.00000
  141     -1.61802    1.00000     -1.61840    1.00000
  142     -1.59080    1.00000     -1.59162    1.00000
  143     -1.37918    1.00000     -1.37915    1.00000
  144     -1.27168    1.00000     -1.27074    1.00000
  145     -1.22073    1.00000     -1.22174    1.00000
  146     -0.84601    1.00000     -0.84601    1.00000
  147     -0.57328    1.00000     -0.57288    1.00000
  148     -0.56723    1.00000     -0.56741    1.00000
  149     -0.56102    1.00000     -0.56110    1.00000
  150     -0.52353    1.00000     -0.52345    1.00000
  151     -0.51869    1.00000     -0.51879    1.00000
  152     -0.51665    1.00000     -0.51651    1.00000
  153     -0.50759    1.00000     -0.50765    1.00000
  154     -0.48526    1.00000     -0.48531    1.00000
  155     -0.48476    1.00000     -0.48480    1.00000
  156     -0.35370    1.00000     -0.35242    1.00000
  157     -0.28436    1.00000     -0.28616    1.00000
  158      0.74727    1.00000      0.74752    1.00000
  159      1.17828    1.00000      1.17836    1.00000
  160      1.17988    1.00000      1.18002    1.00000
  161      1.18707    1.00000      1.18699    1.00000
  162      1.24853    1.00000      1.24862    1.00000
  163      1.26140    1.00000      1.26146    1.00000
  164      1.26871    1.00000      1.26887    1.00000
  165      1.27253    1.00000      1.27249    1.00000
  166      1.27553    1.00000      1.27550    1.00000
  167      1.27658    1.00000      1.27661    1.00000
  168      1.28064    1.00000      1.28053    1.00000
  169      1.28911    1.00000      1.28918    1.00000
  170      1.29610    1.00000      1.29619    1.00000
  171      1.30280    1.00000      1.30277    1.00000
  172      1.30359    1.00000      1.30353    1.00000
  173      1.32318    1.00000      1.32323    1.00000
  174      1.33252    1.00000      1.33252    1.00000
  175      1.44241    1.00000      1.44259    1.00000
  176      1.45526    1.00000      1.45508    1.00000
  177      1.46117    1.00000      1.46146    1.00000
  178      1.47095    1.00000      1.47080    1.00000
  179      1.83050    1.00000      1.83055    1.00000
  180      1.83281    1.00000      1.83284    1.00000
  181      1.86119    1.00000      1.86148    1.00000
  182      1.92952    1.00000      1.92954    1.00000
  183      1.93312    1.00000      1.93318    1.00000
  184      1.93576    1.00000      1.93584    1.00000
  185      1.94040    1.00000      1.94045    1.00000
  186      1.94185    1.00000      1.94208    1.00000
  187      1.94545    1.00000      1.94526    1.00000
  188      1.95238    1.00000      1.95233    1.00000
  189      1.95378    1.00000      1.95389    1.00000
  190      1.95632    1.00000      1.95629    1.00000
  191      1.95808    1.00000      1.95855    1.00000
  192      1.96261    1.00000      1.96238    1.00000
  193      1.97141    1.00000      1.97131    1.00000
  194      1.97425    1.00000      1.97429    1.00000
  195      1.99116    1.00000      1.99131    1.00000
  196      1.99611    1.00000      1.99604    1.00000
  197      2.00292    1.00000      2.00277    1.00000
  198      2.00831    1.00000      2.00820    1.00000
  199      2.02420    1.00000      2.02409    1.00000
  200      2.22190    1.00000      2.22321    1.00000
  201      2.29812    1.00000      2.29614    1.00000
  202      2.88708    1.00000      2.88712    1.00000
  203      2.89082    1.00000      2.89104    1.00000
  204      2.89307    1.00000      2.89316    1.00000
  205      2.95451    1.00000      2.95464    1.00000
  206      2.95633    1.00000      2.95625    1.00000
  207      2.96168    1.00000      2.96171    1.00000
  208      2.96482    1.00000      2.96480    1.00000
  209      2.96754    1.00000      2.96760    1.00000
  210      2.97536    1.00000      2.97536    1.00000
  211      2.98234    1.00000      2.98243    1.00000
  212      2.98282    1.00000      2.98277    1.00000
  213      2.99285    1.00000      2.99285    1.00000
  214      3.00029    1.00000      3.00024    1.00000
  215      3.00715    1.00000      3.00721    1.00000
  216      3.05492    1.00000      3.05493    1.00000
  217      3.06342    1.00000      3.06338    1.00000
  218      3.07327    1.00000      3.07315    1.00000
  219      3.07795    1.00000      3.07802    1.00000
  220      3.08336    1.00000      3.08344    1.00000
  221      3.11416    1.00000      3.11468    1.00000
  222      3.13091    1.00000      3.13056    1.00000
  223      3.17898    1.00000      3.17903    1.00000
  224      3.20319    1.00000      3.20339    1.00000
  225      3.21204    1.00000      3.21218    1.00000
  226      3.26590    1.00000      3.26597    1.00000
  227      3.43145    1.00000      3.43163    1.00000
  228      3.43884    1.00000      3.43869    1.00000
  229      3.49723    1.00000      3.49735    1.00000
  230      3.53929    1.00000      3.53931    1.00000
  231      3.54099    1.00000      3.54102    1.00000
  232      3.55350    1.00000      3.55376    1.00000
  233      3.55659    1.00000      3.55683    1.00000
  234      3.56097    1.00000      3.56085    1.00000
  235      3.56632    1.00000      3.56630    1.00000
  236      3.56751    1.00000      3.56781    1.00000
  237      3.57095    1.00000      3.57060    1.00000
  238      3.57686    1.00000      3.57689    1.00000
  239      3.58646    1.00000      3.58656    1.00000
  240      3.58897    1.00000      3.58920    1.00000
  241      3.59205    1.00000      3.59214    1.00000
  242      3.59566    1.00000      3.59553    1.00000
  243      3.60367    1.00000      3.60361    1.00000
  244      3.61160    1.00000      3.61171    1.00000
  245      3.61463    1.00000      3.61445    1.00000
  246      3.62304    1.00000      3.62309    1.00000
  247      3.62759    1.00000      3.62768    1.00000
  248      3.63318    1.00000      3.63298    1.00000
  249      3.64340    1.00000      3.64352    1.00000
  250      3.65329    1.00000      3.65308    1.00000
  251      3.67796    1.00000      3.67777    1.00000
  252      3.69092    1.00000      3.69082    1.00000
  253      4.02210    1.00000      4.02236    1.00000
  254      4.06850    1.00000      4.06860    1.00000
  255      4.10814    1.00000      4.10791    1.00000
  256      4.61910    1.00000      4.61920    1.00000
  257      4.62390    1.00000      4.62385    1.00000
  258      4.68472    1.00000      4.68478    1.00000
  259      4.70074    1.00000      4.70081    1.00000
  260      4.71775    1.00000      4.71801    1.00000
  261      4.72898    1.00000      4.72896    1.00000
  262      4.84870    1.00000      4.84878    1.00000
  263      5.20273    1.00000      5.20312    1.00000
  264      5.21813    1.00000      5.21780    1.00000
  265      5.28616    1.00000      5.28640    1.00000
  266      5.29172    1.00000      5.29162    1.00000
  267      5.29493    1.00000      5.29489    1.00000
  268      5.30587    1.00000      5.30595    1.00000
  269      5.31248    1.00000      5.31256    1.00000
  270      5.31702    1.00000      5.31686    1.00000
  271      5.34062    1.00000      5.34084    1.00000
  272      5.39956    1.00000      5.39972    1.00000
  273      5.41636    1.00000      5.41593    1.00000
  274      5.59934    1.00000      5.59927    1.00000
  275      5.60360    1.00000      5.60374    1.00000
  276      5.71572    1.00000      5.71597    1.00000
  277      5.75216    1.00000      5.75224    1.00000
  278      5.75250    1.00000      5.75268    1.00000
  279      5.75509    1.00000      5.75518    1.00000
  280      5.75662    1.00000      5.75667    1.00000
  281      5.76363    1.00000      5.76356    1.00000
  282      5.76745    1.00000      5.76776    1.00000
  283      5.79450    1.00000      5.79448    1.00000
  284      5.82359    1.00000      5.82361    1.00000
  285      5.83129    1.00000      5.83113    1.00000
  286      5.83646    1.00000      5.83641    1.00000
  287      5.98061    1.00000      5.98079    1.00000
  288      6.00101    1.00000      6.00103    1.00000
  289      6.01406    1.00000      6.01407    1.00000
  290      6.04028    1.00000      6.04029    1.00000
  291      6.04318    1.00000      6.04324    1.00000
  292      6.04861    1.00000      6.04862    1.00000
  293      6.06072    1.00000      6.06079    1.00000
  294      6.06490    1.00000      6.06490    1.00000
  295      6.06565    1.00000      6.06571    1.00000
  296      6.06654    1.00000      6.06653    1.00000
  297      6.06679    1.00000      6.06683    1.00000
  298      6.07581    1.00000      6.07586    1.00000
  299      6.07694    1.00000      6.07694    1.00000
  300      6.08398    1.00000      6.08393    1.00000
  301      6.08482    1.00000      6.08489    1.00000
  302      6.11540    1.00000      6.11537    1.00000
  303      6.11744    1.00000      6.11755    1.00000
  304      6.13113    1.00000      6.13137    1.00000
  305      6.13514    1.00000      6.13518    1.00000
  306      6.13983    1.00000      6.13965    1.00000
  307      6.14440    1.00000      6.14421    1.00000
  308      6.14719    1.00000      6.14704    1.00000
  309      6.15093    1.00000      6.15130    1.00000
  310      6.20601    1.00000      6.20621    1.00000
  311      6.22230    1.00000      6.22211    1.00000
  312      6.24500    1.00000      6.24500    1.00000
  313      6.27765    1.00000      6.27766    1.00000
  314      6.28311    1.00000      6.28316    1.00000
  315      6.28506    1.00000      6.28513    1.00000
  316      6.28538    1.00000      6.28537    1.00000
  317      6.29067    1.00000      6.29091    1.00000
  318      6.29372    1.00000      6.29376    1.00000
  319      6.29466    1.00000      6.29480    1.00000
  320      6.29911    1.00000      6.29906    1.00000
  321      6.30257    1.00000      6.30274    1.00000
  322      6.30340    1.00000      6.30331    1.00000
  323      6.30558    1.00000      6.30559    1.00000
  324      6.31431    1.00000      6.31453    1.00000
  325      6.31655    1.00000      6.31647    1.00000
  326      6.32367    1.00000      6.32369    1.00000
  327      6.32573    1.00000      6.32571    1.00000
  328      6.33131    1.00000      6.33126    1.00000
  329      6.33269    1.00000      6.33273    1.00000
  330      6.33523    1.00000      6.33537    1.00000
  331      6.33938    1.00000      6.33943    1.00000
  332      6.34829    1.00000      6.34842    1.00000
  333      6.35127    1.00000      6.35122    1.00000
  334      6.35179    1.00000      6.35178    1.00000
  335      6.35991    1.00000      6.36012    1.00000
  336      6.36166    1.00000      6.36164    1.00000
  337      6.36795    1.00000      6.36841    1.00000
  338      6.37286    1.00000      6.37285    1.00000
  339      6.37870    1.00000      6.37784    1.00000
  340      6.38859    1.00000      6.38869    1.00000
  341      6.39130    1.00000      6.39134    1.00000
  342      6.40264    1.00000      6.40268    1.00000
  343      6.40959    1.00000      6.40946    1.00000
  344      6.41806    1.00000      6.41809    1.00000
  345      6.43549    1.00000      6.43550    1.00000
  346      6.44182    1.00000      6.44211    1.00000
  347      6.44978    1.00000      6.44983    1.00000
  348      6.47389    1.00000      6.47354    1.00000
  349      6.48834    1.00000      6.48894    1.00000
  350      6.49452    1.00000      6.49524    1.00000
  351      6.49760    1.00000      6.49760    1.00000
  352      6.51463    1.00000      6.51338    1.00000
  353      6.62523    1.00000      6.62478    1.00000
  354      6.63362    1.00000      6.63321    1.00000
  355      6.91055    1.00000      6.91069    1.00000
  356      6.92203    1.00000      6.92195    1.00000
  357      6.93788    1.00000      6.93783    1.00000
  358      7.11168    1.00000      7.11168    1.00000
  359      7.11215    1.00000      7.11219    1.00000
  360      7.17528    1.00000      7.17534    1.00000
  361      7.17715    1.00000      7.17719    1.00000
  362      7.18248    1.00000      7.18244    1.00000
  363      7.18738    1.00000      7.18741    1.00000
  364      7.21504    1.00000      7.21557    1.00000
  365      7.21698    1.00000      7.21724    1.00000
  366      7.21962    1.00000      7.21949    1.00000
  367      7.22553    1.00000      7.22555    1.00000
  368      7.23911    1.00000      7.23903    1.00000
  369      7.24534    1.00000      7.24538    1.00000
  370      7.24752    1.00000      7.24746    1.00000
  371      7.25154    1.00000      7.25225    1.00000
  372      7.25938    1.00000      7.25900    1.00000
  373      7.27145    1.00000      7.27110    1.00000
  374      7.28131    1.00000      7.28093    1.00000
  375      7.29182    1.00000      7.29168    1.00000
  376      7.31238    1.00000      7.31287    1.00000
  377      7.36820    1.00000      7.36703    1.00000
  378      7.41798    1.00000      7.41742    1.00000
  379      8.09870    1.00000      8.09882    1.00000
  380      8.25022    1.00000      8.25274    1.00000
  381      8.33676    1.00000      8.33601    1.00000
  382      8.65454    1.00000      8.65538    1.00000
  383      8.73276    1.00000      8.73266    1.00000
  384      8.74081    1.00000      8.74074    1.00000
  385      8.78327    1.00000      8.78332    1.00000
  386      8.78856    1.00000      8.78857    1.00000
  387      8.79030    1.00000      8.79038    1.00000
  388      8.80775    1.00000      8.80775    1.00000
  389      8.81015    1.00000      8.81022    1.00000
  390      8.81845    1.00000      8.81808    1.00000
  391      8.82731    1.00000      8.82745    1.00000
  392      8.87854    1.00000      8.87845    1.00000
  393      8.88396    1.00000      8.88401    1.00000
  394      8.89367    1.00000      8.89365    1.00000
  395      8.97029    1.00000      8.97030    1.00000
  396      8.97617    1.00000      8.97617    1.00000
  397      9.02953    1.00000      9.02977    1.00000
  398      9.03411    1.00000      9.03414    1.00000
  399      9.04199    1.00000      9.04198    1.00000
  400      9.04408    1.00000      9.04398    1.00000
  401      9.04976    1.00000      9.04987    1.00000
  402      9.05342    1.00000      9.05356    1.00000
  403      9.05797    1.00000      9.05807    1.00000
  404      9.06228    1.00000      9.06204    1.00000
  405      9.08209    1.00000      9.08209    1.00000
  406      9.08398    1.00000      9.08436    1.00000
  407      9.10206    1.00000      9.10217    1.00000
  408      9.11199    1.00000      9.11193    1.00000
  409      9.11924    1.00000      9.11854    1.00000
  410      9.12819    1.00000      9.12799    1.00000
  411      9.15305    1.00000      9.15278    1.00000
  412      9.15771    1.00000      9.15736    1.00000
  413      9.75367    1.00000      9.75377    1.00000
  414      9.79021    1.00000      9.79094    1.00000
  415      9.82366    1.00000      9.82336    1.00000
  416     10.03570    1.00000     10.03585    1.00000
  417     10.04871    1.00000     10.04879    1.00000
  418     10.05711    1.00000     10.05706    1.00000
  419     10.08095    1.00000     10.08086    1.00000
  420     10.08371    1.00000     10.08378    1.00000
  421     10.08568    1.00000     10.08557    1.00000
  422     10.11715    1.00000     10.11704    1.00000
  423     10.15306    1.00000     10.15349    1.00000
  424     10.16450    1.00000     10.16417    1.00000
  425     10.16903    1.00000     10.17192    1.00000
  426     11.32156    1.00000     11.32550    1.00000
  427     11.46084    1.00000     11.45946    1.00000
  428     11.48982    1.00000     11.49030    1.00000
  429     12.27847    1.00000     12.28999    1.00000
  430     13.95671    1.00000     13.94287    1.00000
  431     16.24978    0.00000     16.35629    0.00000
  432     19.05029    0.00000     19.05054    0.00000
  433     19.05782    0.00000     19.05780    0.00000
  434     19.06144    0.00000     19.06141    0.00000
  435     19.06948    0.00000     19.06948    0.00000
  436     19.07586    0.00000     19.07569    0.00000
  437     19.11088    0.00000     19.11102    0.00000
  438     19.23609    0.00000     19.23600    0.00000
  439     19.24303    0.00000     19.24306    0.00000
  440     19.34561    0.00000     19.34439    0.00000
  441     19.36650    0.00000     19.36610    0.00000
  442     19.38171    0.00000     19.38219    0.00000
  443     19.41966    0.00000     19.42016    0.00000

Fermi level: 13.52089

Gap: 1.653 eV
Transition (v -> c):
  (s=1, k=0, n=429, [[0.00, 0.00, 0.00]]) -> (s=1, k=0, n=430, [[0.00, 0.00, 0.00]])
No difference between direct/indirect transitions
Input parameters:
  eigensolver: {blocksize: 1,
                converge_unocc: False,
                excited_state: True,
                functional: {'name': 'ks'},
                grad_tol_inner_loop: 0.0005,
                grad_tol_pz_localization: 0.0005,
                linesearch_algo: {'name': 'max-step', 'max_step': 0.2},
                localization_tol: None,
                localizationseed: None,
                localizationtype: None,
                max_step_inner_loop: 0.2,
                maxiter_inner_loop: 6,
                maxiter_pz_localization: 50,
                maxiter_unocc: 333,
                momevery: 10,
                name: etdm-fdpw,
                need_init_orbs: False,
                need_localization: False,
                printinnerloop: False,
                restart_canonical: True,
                restartevery_iloop_notconverged: 3,
                searchdir_algo: {'name': 'l-bfgs', 'memory': 3},
                use_prec: True}

Input parameters:
  occupations: {name: mom,
                numbers: [[1. 1. 1. ... 0. 0. 0.]
 [1. 1. 1. ... 0. 0. 0.]],
                update_numbers: True,
                use_fixed_occupations: False,
                use_projections: True}

Excited-state calculation with Maximum Overlap Method
  Gaussian smearing of holes and excited electrons: off

Initialize ...

species:
  C:
    name: Carbon
    id: 4aa54d4b901d75f77cc0ea3eec22967b
    Z: 6.0
    valence: 4
    core: 2
    charge: 0.0
    file: /work/home/ac2uoma125/anaconda3/envs/gpaw2460/share/gpaw/C.PBE.gz
    compensation charges: {type: gauss,
                           rc: 0.20,
                           lmax: 2}
    cutoffs: {filter: 1.14,
              core: 1.14}
    projectors:
      #              energy  rcut
      - 2s(2.00)   -13.751   0.635
      - 2p(2.00)    -5.284   0.635
      -  s          13.461   0.635
      -  p          21.927   0.635
      -  d           0.000   0.635
  
    # Using partial waves for C as LCAO basis

  N:
    name: Nitrogen
    id: f7500608b86eaa90eef8b1d9a670dc53
    Z: 7.0
    valence: 5
    core: 2
    charge: 0.0
    file: /work/home/ac2uoma125/anaconda3/envs/gpaw2460/share/gpaw/N.PBE.gz
    compensation charges: {type: gauss,
                           rc: 0.18,
                           lmax: 2}
    cutoffs: {filter: 1.11,
              core: 0.96}
    projectors:
      #              energy  rcut
      - 2s(2.00)   -18.583   0.603
      - 2p(3.00)    -7.089   0.529
      -  s           8.629   0.603
      -  p          20.123   0.529
      -  d           0.000   0.577
  
    # Using partial waves for N as LCAO basis

Reference energy: -221394.138216  # eV

Spin-polarized calculation.
Magnetic moment: 0.000000

Convergence criteria:
 Maximum [total energy] change in last 3 cyles: 0.0005 eV / valence electron
 Maximum integral of absolute [dens]ity change: 0.0001 electrons / valence electron
 Maximum integral of absolute [eigenst]ate change: 4e-08 eV^2 / valence electron
 Maximum number of scf [iter]ations: 333
 (Square brackets indicate name in SCF output, whereas a 'c' in
 the SCF output indicates the quantity has converged.)

Eigensolver
   Direct minimisation using exponential transformation.
       Search direction: L-BFGS algorithm
       Line search: step size equals one
       Preconditioning: True
       Orbital-density self-interaction corrections: ks
       WARNING: do not use it for metals as occupation numbers are
                not found variationally
 

Density mixing:
  Method: difference
  Backend: no-mixing
  Linear mixing parameter: 0
  old densities: 0
  Damping of long wavelength oscillations: 0 

XC parameters: HYB_GGA_XC_HSE06 + 0.25 * EXX(omega = 0.11 bohr^-1)
  Short-range Coulomb: erfc(omega*r)/r (omega = 0.11 bohr^-1)

Memory estimate:
  Process memory now: 5069.62 MiB
Attribute error: AttributeError("'HybridXC' object has no attribute 'estimate_memory'")
Some object probably lacks estimate_memory() method
Memory breakdown may be incomplete
  Calculator: 2.74 MiB
    Density: 1.93 MiB
      Arrays: 1.09 MiB
      Localized functions: 0.83 MiB
      Mixer: 0.00 MiB
    Hamiltonian: 0.81 MiB
      Arrays: 0.81 MiB

Total number of cores used: 64
Domain decomposition: 4 x 4 x 4

Number of atoms: 215
Number of atomic orbitals: 860
Number of bands in calculation: 444
Number of valence electrons: 862
Bands to converge: occupied

... initialized

Initializing position-dependent things.

Density initialized from wave functions
        .--------C----------------.  
       /|           C             |  
      / | C       C  C C   C      |  
     / C|    C  C    C  C     C   |  
    /  C|C    C C C    C CCC   C  |  
   /    C C C    C C      N CC    |  
  /  C C| CCCCCC  C C C    C CC   |  
 *    C C   CCCCC    C C C    C C |  
 |C    CCC C  CCCCC C  CCCCC   C C|  
 | C C  CCC C    CCC C C  CCC     C  
 |  C C | CCCC C  CCCCC C  CC C   |  
 C   CC C C C C C    CCC C   CC   |  
 |    CCCC C C CCCCC C CCCC C  C  |  
 |     C.CC-C-C-C-CC-C-C-C-C-C----.  
 |  C C/C CCCC   C C CC C C CCC  /   
 |   CC     C CC    C C      C  /    
 |   /C C      CCCC    C C     /     
 |  /    C C      C C      CC /      
 | /C       C        C C     /       
 |/                     C   /        
 C----------------C--------*         

Positions:
   0 C      0.002372    0.002372    0.002372    ( 0.0000,  0.0000,  0.0000)
   1 C     -0.000177    1.774292    1.774292    ( 0.0000,  0.0000,  0.0000)
   2 C      1.774292    1.774292   -0.000177    ( 0.0000,  0.0000,  0.0000)
   3 C      1.774292   -0.000177    1.774292    ( 0.0000,  0.0000,  0.0000)
   4 C      2.660291    0.886016    2.660291    ( 0.0000,  0.0000,  0.0000)
   5 C      0.887932    0.887932    0.887932    ( 0.0000,  0.0000,  0.0000)
   6 C      0.886016    2.660291    2.660291    ( 0.0000,  0.0000,  0.0000)
   7 C      2.660291    2.660291    0.886016    ( 0.0000,  0.0000,  0.0000)
   8 C     -0.001720   -0.001720    3.550221    ( 0.0000,  0.0000,  0.0000)
   9 C     -0.001514    1.772014    5.320396    ( 0.0000,  0.0000,  0.0000)
  10 C      1.772639    1.772639    3.546938    ( 0.0000,  0.0000,  0.0000)
  11 C      1.772014   -0.001514    5.320396    ( 0.0000,  0.0000,  0.0000)
  12 C      2.658540    0.886445    6.206956    ( 0.0000,  0.0000,  0.0000)
  13 C      0.885452    0.885452    4.434520    ( 0.0000,  0.0000,  0.0000)
  14 C      0.886445    2.658540    6.206956    ( 0.0000,  0.0000,  0.0000)
  15 C      2.659334    2.659334    4.433008    ( 0.0000,  0.0000,  0.0000)
  16 C      0.005597    0.005597    7.096195    ( 0.0000,  0.0000,  0.0000)
  17 C      0.000909    1.776657    8.866874    ( 0.0000,  0.0000,  0.0000)
  18 C      1.773012    1.773012    7.093113    ( 0.0000,  0.0000,  0.0000)
  19 C      1.776657    0.000909    8.866874    ( 0.0000,  0.0000,  0.0000)
  20 C      2.662759    0.886233    9.752379    ( 0.0000,  0.0000,  0.0000)
  21 C      0.889792    0.889792    7.980502    ( 0.0000,  0.0000,  0.0000)
  22 C      0.886233    2.662759    9.752379    ( 0.0000,  0.0000,  0.0000)
  23 C      2.657417    2.657417    7.978135    ( 0.0000,  0.0000,  0.0000)
  24 C     -0.001720    3.550221   -0.001720    ( 0.0000,  0.0000,  0.0000)
  25 C     -0.001514    5.320396    1.772014    ( 0.0000,  0.0000,  0.0000)
  26 C      1.772014    5.320396   -0.001514    ( 0.0000,  0.0000,  0.0000)
  27 C      1.772639    3.546938    1.772639    ( 0.0000,  0.0000,  0.0000)
  28 C      2.659334    4.433008    2.659334    ( 0.0000,  0.0000,  0.0000)
  29 C      0.885452    4.434520    0.885452    ( 0.0000,  0.0000,  0.0000)
  30 C      0.886445    6.206956    2.658540    ( 0.0000,  0.0000,  0.0000)
  31 C      2.658540    6.206956    0.886445    ( 0.0000,  0.0000,  0.0000)
  32 C     -0.001669    3.546694    3.546694    ( 0.0000,  0.0000,  0.0000)
  33 C     -0.002583    5.319921    5.319921    ( 0.0000,  0.0000,  0.0000)
  34 C      1.771768    5.319199    3.545991    ( 0.0000,  0.0000,  0.0000)
  35 C      1.771768    3.545991    5.319199    ( 0.0000,  0.0000,  0.0000)
  36 C      2.657674    4.432033    6.205470    ( 0.0000,  0.0000,  0.0000)
  37 C      0.884954    4.433087    4.433087    ( 0.0000,  0.0000,  0.0000)
  38 C      0.883451    6.206763    6.206763    ( 0.0000,  0.0000,  0.0000)
  39 C      2.657674    6.205470    4.432033    ( 0.0000,  0.0000,  0.0000)
  40 C      0.000014    3.545859    7.091609    ( 0.0000,  0.0000,  0.0000)
  41 C     -0.010700    5.330071    8.863338    ( 0.0000,  0.0000,  0.0000)
  42 C      1.771117    5.320902    7.092299    ( 0.0000,  0.0000,  0.0000)
  43 C      1.770943    3.548938    8.865634    ( 0.0000,  0.0000,  0.0000)
  44 C      2.658959    4.434080    9.751333    ( 0.0000,  0.0000,  0.0000)
  45 C      0.881582    4.437692    7.977967    ( 0.0000,  0.0000,  0.0000)
  46 C      0.885071    6.209040    9.751980    ( 0.0000,  0.0000,  0.0000)
  47 C      2.660173    6.206484    7.978018    ( 0.0000,  0.0000,  0.0000)
  48 C      0.005597    7.096195    0.005597    ( 0.0000,  0.0000,  0.0000)
  49 C      0.000909    8.866874    1.776657    ( 0.0000,  0.0000,  0.0000)
  50 C      1.776657    8.866874    0.000909    ( 0.0000,  0.0000,  0.0000)
  51 C      1.773012    7.093113    1.773012    ( 0.0000,  0.0000,  0.0000)
  52 C      2.657417    7.978135    2.657417    ( 0.0000,  0.0000,  0.0000)
  53 C      0.889792    7.980502    0.889792    ( 0.0000,  0.0000,  0.0000)
  54 C      0.886233    9.752379    2.662759    ( 0.0000,  0.0000,  0.0000)
  55 C      2.662759    9.752379    0.886233    ( 0.0000,  0.0000,  0.0000)
  56 C      0.000014    7.091609    3.545859    ( 0.0000,  0.0000,  0.0000)
  57 C     -0.010700    8.863338    5.330071    ( 0.0000,  0.0000,  0.0000)
  58 C      1.770943    8.865634    3.548938    ( 0.0000,  0.0000,  0.0000)
  59 C      1.771117    7.092299    5.320902    ( 0.0000,  0.0000,  0.0000)
  60 C      2.660173    7.978018    6.206484    ( 0.0000,  0.0000,  0.0000)
  61 C      0.881582    7.977967    4.437692    ( 0.0000,  0.0000,  0.0000)
  62 C      0.885071    9.751980    6.209040    ( 0.0000,  0.0000,  0.0000)
  63 C      2.658959    9.751333    4.434080    ( 0.0000,  0.0000,  0.0000)
  64 C     -0.005349    7.094062    7.094062    ( 0.0000,  0.0000,  0.0000)
  65 C      0.007882    8.871270    8.871270    ( 0.0000,  0.0000,  0.0000)
  66 C      1.773973    8.865184    7.093341    ( 0.0000,  0.0000,  0.0000)
  67 C      1.773973    7.093341    8.865184    ( 0.0000,  0.0000,  0.0000)
  68 C      2.662178    7.979334    9.751729    ( 0.0000,  0.0000,  0.0000)
  69 C      0.887169    7.980595    7.980595    ( 0.0000,  0.0000,  0.0000)
  70 C      0.891775    9.755494    9.755494    ( 0.0000,  0.0000,  0.0000)
  71 C      2.662178    9.751729    7.979334    ( 0.0000,  0.0000,  0.0000)
  72 C      3.550221   -0.001720   -0.001720    ( 0.0000,  0.0000,  0.0000)
  73 C      3.546938    1.772639    1.772639    ( 0.0000,  0.0000,  0.0000)
  74 C      5.320396    1.772014   -0.001514    ( 0.0000,  0.0000,  0.0000)
  75 C      5.320396   -0.001514    1.772014    ( 0.0000,  0.0000,  0.0000)
  76 C      6.206956    0.886445    2.658540    ( 0.0000,  0.0000,  0.0000)
  77 C      4.434520    0.885452    0.885452    ( 0.0000,  0.0000,  0.0000)
  78 C      4.433008    2.659334    2.659334    ( 0.0000,  0.0000,  0.0000)
  79 C      6.206956    2.658540    0.886445    ( 0.0000,  0.0000,  0.0000)
  80 C      3.546694   -0.001669    3.546694    ( 0.0000,  0.0000,  0.0000)
  81 C      3.545991    1.771768    5.319199    ( 0.0000,  0.0000,  0.0000)
  82 C      5.319199    1.771768    3.545991    ( 0.0000,  0.0000,  0.0000)
  83 C      5.319921   -0.002583    5.319921    ( 0.0000,  0.0000,  0.0000)
  84 C      6.206763    0.883451    6.206763    ( 0.0000,  0.0000,  0.0000)
  85 C      4.433087    0.884954    4.433087    ( 0.0000,  0.0000,  0.0000)
  86 C      4.432033    2.657674    6.205470    ( 0.0000,  0.0000,  0.0000)
  87 C      6.205470    2.657674    4.432033    ( 0.0000,  0.0000,  0.0000)
  88 C      3.545859    0.000014    7.091609    ( 0.0000,  0.0000,  0.0000)
  89 C      3.548938    1.770943    8.865634    ( 0.0000,  0.0000,  0.0000)
  90 C      5.320902    1.771117    7.092299    ( 0.0000,  0.0000,  0.0000)
  91 C      5.330071   -0.010700    8.863338    ( 0.0000,  0.0000,  0.0000)
  92 C      6.209040    0.885071    9.751980    ( 0.0000,  0.0000,  0.0000)
  93 C      4.437692    0.881582    7.977967    ( 0.0000,  0.0000,  0.0000)
  94 C      4.434080    2.658959    9.751333    ( 0.0000,  0.0000,  0.0000)
  95 C      6.206484    2.660173    7.978018    ( 0.0000,  0.0000,  0.0000)
  96 C      3.546694    3.546694   -0.001669    ( 0.0000,  0.0000,  0.0000)
  97 C      3.545991    5.319199    1.771768    ( 0.0000,  0.0000,  0.0000)
  98 C      5.319921    5.319921   -0.002583    ( 0.0000,  0.0000,  0.0000)
  99 C      5.319199    3.545991    1.771768    ( 0.0000,  0.0000,  0.0000)
 100 C      6.205470    4.432033    2.657674    ( 0.0000,  0.0000,  0.0000)
 101 C      4.433087    4.433087    0.884954    ( 0.0000,  0.0000,  0.0000)
 102 C      4.432033    6.205470    2.657674    ( 0.0000,  0.0000,  0.0000)
 103 C      6.206763    6.206763    0.883451    ( 0.0000,  0.0000,  0.0000)
 104 C      3.546165    3.546165    3.546165    ( 0.0000,  0.0000,  0.0000)
 105 C      3.546493    5.320207    5.320207    ( 0.0000,  0.0000,  0.0000)
 106 C      5.320207    5.320207    3.546493    ( 0.0000,  0.0000,  0.0000)
 107 C      5.320207    3.546493    5.320207    ( 0.0000,  0.0000,  0.0000)
 108 C      6.204957    4.435216    6.204957    ( 0.0000,  0.0000,  0.0000)
 109 C      4.432681    4.432681    4.432681    ( 0.0000,  0.0000,  0.0000)
 110 C      4.435216    6.204957    6.204957    ( 0.0000,  0.0000,  0.0000)
 111 C      6.204957    6.204957    4.435216    ( 0.0000,  0.0000,  0.0000)
 112 C      3.540875    3.540875    7.092749    ( 0.0000,  0.0000,  0.0000)
 113 C      3.546107    5.318967    8.863917    ( 0.0000,  0.0000,  0.0000)
 114 C      5.319652    5.319652    7.095926    ( 0.0000,  0.0000,  0.0000)
 115 C      5.318967    3.546107    8.863917    ( 0.0000,  0.0000,  0.0000)
 116 C      6.209079    4.430145    9.754367    ( 0.0000,  0.0000,  0.0000)
 117 C      4.423602    4.423602    7.973369    ( 0.0000,  0.0000,  0.0000)
 118 C      4.430145    6.209079    9.754367    ( 0.0000,  0.0000,  0.0000)
 119 C      6.145582    6.145582    8.012744    ( 0.0000,  0.0000,  0.0000)
 120 C      3.545859    7.091609    0.000014    ( 0.0000,  0.0000,  0.0000)
 121 C      3.548938    8.865634    1.770943    ( 0.0000,  0.0000,  0.0000)
 122 C      5.330071    8.863338   -0.010700    ( 0.0000,  0.0000,  0.0000)
 123 C      5.320902    7.092299    1.771117    ( 0.0000,  0.0000,  0.0000)
 124 C      6.206484    7.978018    2.660173    ( 0.0000,  0.0000,  0.0000)
 125 C      4.437692    7.977967    0.881582    ( 0.0000,  0.0000,  0.0000)
 126 C      4.434080    9.751333    2.658959    ( 0.0000,  0.0000,  0.0000)
 127 C      6.209040    9.751980    0.885071    ( 0.0000,  0.0000,  0.0000)
 128 C      3.540875    7.092749    3.540875    ( 0.0000,  0.0000,  0.0000)
 129 C      3.546107    8.863917    5.318967    ( 0.0000,  0.0000,  0.0000)
 130 C      5.318967    8.863917    3.546107    ( 0.0000,  0.0000,  0.0000)
 131 C      5.319652    7.095926    5.319652    ( 0.0000,  0.0000,  0.0000)
 132 C      6.145582    8.012744    6.145582    ( 0.0000,  0.0000,  0.0000)
 133 C      4.423602    7.973369    4.423602    ( 0.0000,  0.0000,  0.0000)
 134 C      4.430145    9.754367    6.209079    ( 0.0000,  0.0000,  0.0000)
 135 C      6.209079    9.754367    4.430145    ( 0.0000,  0.0000,  0.0000)
 136 C      3.550030    7.090855    7.090855    ( 0.0000,  0.0000,  0.0000)
 137 C      3.552115    8.861877    8.861877    ( 0.0000,  0.0000,  0.0000)
 138 C      5.332666    8.847031    7.083222    ( 0.0000,  0.0000,  0.0000)
 139 C      5.332666    7.083222    8.847031    ( 0.0000,  0.0000,  0.0000)
 140 C      6.223423    7.971641    9.734620    ( 0.0000,  0.0000,  0.0000)
 141 C      4.440870    7.974370    7.974370    ( 0.0000,  0.0000,  0.0000)
 142 C      4.438713    9.748724    9.748724    ( 0.0000,  0.0000,  0.0000)
 143 C      6.223423    9.734620    7.971641    ( 0.0000,  0.0000,  0.0000)
 144 C      7.096195    0.005597    0.005597    ( 0.0000,  0.0000,  0.0000)
 145 C      7.093113    1.773012    1.773012    ( 0.0000,  0.0000,  0.0000)
 146 C      8.866874    1.776657    0.000909    ( 0.0000,  0.0000,  0.0000)
 147 C      8.866874    0.000909    1.776657    ( 0.0000,  0.0000,  0.0000)
 148 C      9.752379    0.886233    2.662759    ( 0.0000,  0.0000,  0.0000)
 149 C      7.980502    0.889792    0.889792    ( 0.0000,  0.0000,  0.0000)
 150 C      7.978135    2.657417    2.657417    ( 0.0000,  0.0000,  0.0000)
 151 C      9.752379    2.662759    0.886233    ( 0.0000,  0.0000,  0.0000)
 152 C      7.091609    0.000014    3.545859    ( 0.0000,  0.0000,  0.0000)
 153 C      7.092299    1.771117    5.320902    ( 0.0000,  0.0000,  0.0000)
 154 C      8.865634    1.770943    3.548938    ( 0.0000,  0.0000,  0.0000)
 155 C      8.863338   -0.010700    5.330071    ( 0.0000,  0.0000,  0.0000)
 156 C      9.751980    0.885071    6.209040    ( 0.0000,  0.0000,  0.0000)
 157 C      7.977967    0.881582    4.437692    ( 0.0000,  0.0000,  0.0000)
 158 C      7.978018    2.660173    6.206484    ( 0.0000,  0.0000,  0.0000)
 159 C      9.751333    2.658959    4.434080    ( 0.0000,  0.0000,  0.0000)
 160 C      7.094062   -0.005349    7.094062    ( 0.0000,  0.0000,  0.0000)
 161 C      7.093341    1.773973    8.865184    ( 0.0000,  0.0000,  0.0000)
 162 C      8.865184    1.773973    7.093341    ( 0.0000,  0.0000,  0.0000)
 163 C      8.871270    0.007882    8.871270    ( 0.0000,  0.0000,  0.0000)
 164 C      9.755494    0.891775    9.755494    ( 0.0000,  0.0000,  0.0000)
 165 C      7.980595    0.887169    7.980595    ( 0.0000,  0.0000,  0.0000)
 166 C      7.979334    2.662178    9.751729    ( 0.0000,  0.0000,  0.0000)
 167 C      9.751729    2.662178    7.979334    ( 0.0000,  0.0000,  0.0000)
 168 C      7.091609    3.545859    0.000014    ( 0.0000,  0.0000,  0.0000)
 169 C      7.092299    5.320902    1.771117    ( 0.0000,  0.0000,  0.0000)
 170 C      8.863338    5.330071   -0.010700    ( 0.0000,  0.0000,  0.0000)
 171 C      8.865634    3.548938    1.770943    ( 0.0000,  0.0000,  0.0000)
 172 C      9.751333    4.434080    2.658959    ( 0.0000,  0.0000,  0.0000)
 173 C      7.977967    4.437692    0.881582    ( 0.0000,  0.0000,  0.0000)
 174 C      7.978018    6.206484    2.660173    ( 0.0000,  0.0000,  0.0000)
 175 C      9.751980    6.209040    0.885071    ( 0.0000,  0.0000,  0.0000)
 176 C      7.092749    3.540875    3.540875    ( 0.0000,  0.0000,  0.0000)
 177 C      7.095926    5.319652    5.319652    ( 0.0000,  0.0000,  0.0000)
 178 C      8.863917    5.318967    3.546107    ( 0.0000,  0.0000,  0.0000)
 179 C      8.863917    3.546107    5.318967    ( 0.0000,  0.0000,  0.0000)
 180 C      9.754367    4.430145    6.209079    ( 0.0000,  0.0000,  0.0000)
 181 C      7.973369    4.423602    4.423602    ( 0.0000,  0.0000,  0.0000)
 182 C      8.012744    6.145582    6.145582    ( 0.0000,  0.0000,  0.0000)
[...]
  385      8.78409    1.00000      8.78310    1.00000
  386      8.78828    1.00000      8.78795    1.00000
  387      8.79148    1.00000      8.78993    1.00000
  388      8.80782    1.00000      8.80813    1.00000
  389      8.80886    1.00000      8.80820    1.00000
  390      8.81653    1.00000      8.82341    1.00000
  391      8.82933    1.00000      8.82594    1.00000
  392      8.87816    1.00000      8.88121    1.00000
  393      8.88337    1.00000      8.88126    1.00000
  394      8.89413    1.00000      8.89445    1.00000
  395      8.97057    1.00000      8.97040    1.00000
  396      8.97590    1.00000      8.97597    1.00000
  397      9.03199    1.00000      9.02708    1.00000
  398      9.03586    1.00000      9.03505    1.00000
  399      9.03953    1.00000      9.04020    1.00000
  400      9.04196    1.00000      9.04373    1.00000
  401      9.05053    1.00000      9.04902    1.00000
  402      9.05716    1.00000      9.05408    1.00000
  403      9.05757    1.00000      9.05617    1.00000
  404      9.06198    1.00000      9.06584    1.00000
  405      9.08231    1.00000      9.08010    1.00000
  406      9.08625    1.00000      9.08216    1.00000
  407      9.10422    1.00000      9.10254    1.00000
  408      9.11011    1.00000      9.11244    1.00000
  409      9.12466    1.00000      9.12840    1.00000
  410      9.12695    1.00000      9.13998    1.00000
  411      9.14330    1.00000      9.14571    1.00000
  412      9.14772    1.00000      9.15503    1.00000
  413      9.75437    1.00000      9.75242    1.00000
  414      9.79768    1.00000      9.78338    1.00000
  415      9.82014    1.00000      9.82606    1.00000
  416     10.04019    1.00000     10.03635    1.00000
  417     10.04590    1.00000     10.04571    1.00000
  418     10.05780    1.00000     10.05837    1.00000
  419     10.08002    1.00000     10.08214    1.00000
  420     10.08437    1.00000     10.08274    1.00000
  421     10.08466    1.00000     10.08654    1.00000
  422     10.11670    1.00000     10.11919    1.00000
  423     10.15110    1.00000     10.13487    1.00000
  424     10.16217    1.00000     10.15366    1.00000
  425     10.20123    1.00000     10.16834    1.00000
  426     11.36500    1.00000     11.28710    1.00000
  427     11.44411    1.00000     11.47573    1.00000
  428     11.49356    1.00000     11.48133    1.00000
  429     12.41659    1.00000     12.18789    1.00000
  430     13.79014    1.00000     14.06175    1.00000
  431     16.18348    0.00000     16.40382    0.00000
  432     19.05059    0.00000     19.04868    0.00000
  433     19.05913    0.00000     19.05861    0.00000
  434     19.06109    0.00000     19.06175    0.00000
  435     19.07153    0.00000     19.06888    0.00000
  436     19.07376    0.00000     19.07668    0.00000
  437     19.11129    0.00000     19.11094    0.00000
  438     19.23463    0.00000     19.23604    0.00000
  439     19.24393    0.00000     19.24282    0.00000
  440     19.34395    0.00000     19.34617    0.00000
  441     19.36526    0.00000     19.36775    0.00000
  442     19.38251    0.00000     19.38081    0.00000
  443     19.42195    0.00000     19.41758    0.00000

Fermi level: inf

Could not find a gap

Forces in eV/Ang:
  0 C     0.00056    0.00057    0.00183
  1 C     0.00015   -0.00009    0.00096
  2 C     0.00023    0.00024    0.00033
  3 C    -0.00010    0.00017    0.00095
  4 C    -0.00063   -0.00060    0.00024
  5 C     0.00016    0.00017    0.00141
  6 C    -0.00061   -0.00062    0.00024
  7 C    -0.00140   -0.00138    0.00143
  8 C     0.00077    0.00080    0.00170
  9 C     0.00187    0.00090   -0.00040
 10 C    -0.00079   -0.00077    0.00067
 11 C     0.00087    0.00189   -0.00030
 12 C    -0.00282    0.00184    0.00991
 13 C    -0.00063   -0.00063    0.00153
 14 C     0.00206   -0.00302    0.01026
 15 C    -0.00091   -0.00091    0.00012
 16 C    -0.00235   -0.00236   -0.00775
 17 C    -0.00268    0.00301    0.00395
 18 C     0.00659    0.00641   -0.02202
 19 C     0.00301   -0.00263    0.00397
 20 C     0.00077    0.00136    0.00215
 21 C     0.00315    0.00316    0.00391
 22 C     0.00136    0.00078    0.00213
 23 C     0.01066    0.01068    0.03039
 24 C    -0.00119   -0.00016    0.00134
 25 C    -0.00075   -0.00495    0.00037
 26 C    -0.00006    0.00634   -0.00105
 27 C    -0.00040   -0.00016   -0.00007
 28 C    -0.00014   -0.00157   -0.00173
 29 C     0.00076   -0.00088   -0.00078
 30 C     0.00986    0.01581   -0.00888
 31 C     0.00980   -0.02589   -0.01097
 32 C    -0.00041   -0.00155    0.00045
 33 C    -0.01469    0.00542    0.00162
 34 C    -0.00112   -0.00559    0.00166
 35 C    -0.00247   -0.00693   -0.00236
 36 C    -0.01024    0.00281   -0.00687
 37 C    -0.00054    0.00120    0.00378
 38 C    -0.00280   -0.00171   -0.00060
 39 C     0.00415    0.01074    0.00107
 40 C     0.01217   -0.01047   -0.01959
 41 C     0.00678    0.01126    0.00305
 42 C    -0.00437   -0.00123    0.00092
 43 C    -0.00158    0.00334   -0.00524
 44 C     0.00067   -0.00910    0.00847
 45 C    -0.00444   -0.00336   -0.00346
 46 C     0.00046   -0.00416    0.00242
 47 C    -0.00811    0.00302   -0.00588
 48 C     0.00312    0.00259    0.00073
 49 C     0.00003   -0.00137    0.00152
 50 C     0.00045    0.00055    0.00548
 51 C     0.00674    0.01039   -0.01134
 52 C    -0.00649   -0.01357   -0.00499
 53 C     0.00029    0.00048    0.00024
 54 C    -0.00057   -0.00040    0.00088
 55 C     0.00044    0.00039   -0.00007
 56 C     0.02043   -0.02946   -0.02283
 57 C    -0.00012    0.00159    0.01034
 58 C    -0.00008    0.00139    0.00144
 59 C    -0.00109   -0.00273    0.00312
 60 C     0.00030    0.00805   -0.00818
 61 C    -0.00310    0.00036   -0.00349
 62 C     0.00309    0.00208   -0.00706
 63 C    -0.00177   -0.00223    0.00201
 64 C    -0.00988    0.00283   -0.00161
 65 C     0.00437    0.00154    0.00162
 66 C     0.00160   -0.00312    0.00386
 67 C    -0.00203    0.00033    0.00602
 68 C    -0.00617    0.00599   -0.00342
 69 C     0.00283   -0.00121   -0.00259
 70 C     0.00184    0.00091    0.00247
 71 C     0.00658   -0.00172   -0.01308
 72 C    -0.00018   -0.00118    0.00131
 73 C    -0.00018   -0.00039   -0.00007
 74 C     0.00631   -0.00006   -0.00109
 75 C    -0.00488   -0.00077    0.00034
 76 C     0.01551    0.00971   -0.00873
 77 C    -0.00090    0.00076   -0.00077
 78 C    -0.00158   -0.00013   -0.00173
 79 C    -0.02585    0.00976   -0.01091
 80 C    -0.00155   -0.00040    0.00045
 81 C    -0.00696   -0.00244   -0.00225
 82 C    -0.00550   -0.00110    0.00172
 83 C     0.00543   -0.01434    0.00157
 84 C    -0.00165   -0.00279   -0.00056
 85 C     0.00109   -0.00052    0.00368
 86 C     0.00275   -0.01024   -0.00699
 87 C     0.01080    0.00429    0.00100
 88 C    -0.00998    0.01170   -0.01886
 89 C     0.00329   -0.00156   -0.00523
 90 C    -0.00128   -0.00429    0.00098
 91 C     0.01102    0.00676    0.00303
 92 C    -0.00398    0.00041    0.00239
 93 C    -0.00330   -0.00435   -0.00343
 94 C    -0.00909    0.00068    0.00844
 95 C     0.00310   -0.00807   -0.00595
 96 C     0.00071    0.00073   -0.00154
 97 C     0.00102    0.00633   -0.00092
 98 C    -0.00012   -0.00018    0.01855
 99 C     0.00631    0.00111   -0.00092
100 C    -0.00416   -0.00636    0.00205
101 C    -0.00969   -0.00968   -0.00072
102 C    -0.00634   -0.00435    0.00191
103 C     0.00260    0.00259    0.00212
104 C    -0.00249   -0.00244    0.00147
105 C     0.00181   -0.02188    0.00999
106 C     0.00917    0.00945   -0.01149
107 C    -0.02187    0.00170    0.01029
108 C     0.03845   -0.02288   -0.01427
109 C     0.00291    0.00280   -0.00828
110 C    -0.02300    0.03845   -0.01385
111 C    -0.01691   -0.01738   -0.00784
112 C     0.03127    0.03122   -0.06322
113 C    -0.02274    0.00020    0.00108
114 C     0.05611    0.05553   -0.34692
115 C     0.00031   -0.02271    0.00103
116 C    -0.11753    0.04183   -0.03490
117 C     0.05134    0.05133    0.15506
118 C     0.04183   -0.11788   -0.03488
119 C    -0.35025   -0.35301    0.68164
120 C     0.02332    0.05174   -0.02500
121 C    -0.00489    0.00293    0.00126
122 C    -0.01903   -0.00140   -0.00451
123 C    -0.00243    0.00132    0.00361
124 C     0.00089   -0.00235   -0.00067
125 C     0.00413    0.00029    0.00586
126 C     0.00237   -0.00522   -0.00046
127 C     0.01139   -0.00197   -0.00148
128 C    -0.01461    0.02605   -0.01917
129 C     0.01264   -0.00252    0.00042
130 C     0.00796   -0.00593    0.01486
131 C     0.05787    0.15493    0.00289
132 C     0.30844   -0.20942   -0.07902
133 C    -0.03954   -0.05484   -0.03388
134 C    -0.03110    0.02519    0.02656
135 C     0.06950    0.03374   -0.03547
136 C    -0.00282   -0.00457    0.00146
137 C     0.00313   -0.01330    0.02267
138 C     0.07321   -0.03979   -0.07825
139 C     0.00272    0.23377    0.00320
140 C     0.03366    0.01382    0.02375
141 C    -0.02004    0.01841   -0.04112
142 C     0.00187    0.00505   -0.00497
143 C    -0.01782    0.01011   -0.00306
144 C     0.00270    0.00312    0.00074
145 C     0.01074    0.00658   -0.01135
146 C     0.00050    0.00044    0.00551
147 C    -0.00140    0.00012    0.00150
148 C    -0.00042   -0.00057    0.00088
149 C     0.00046    0.00026    0.00021
150 C    -0.01393   -0.00667   -0.00518
151 C     0.00036    0.00045   -0.00008
152 C    -0.02879    0.02002   -0.02245
153 C    -0.00270   -0.00099    0.00310
154 C     0.00147   -0.00004    0.00137
155 C     0.00153   -0.00025    0.01006
156 C     0.00203    0.00307   -0.00691
157 C     0.00040   -0.00302   -0.00342
158 C     0.00810    0.00041   -0.00822
159 C    -0.00235   -0.00174    0.00212
160 C     0.00289   -0.00960   -0.00165
161 C     0.00027   -0.00198    0.00604
162 C    -0.00318    0.00168    0.00381
163 C     0.00155    0.00434    0.00164
164 C     0.00091    0.00186    0.00249
165 C    -0.00114    0.00275   -0.00251
166 C     0.00614   -0.00617   -0.00337
167 C    -0.00167    0.00670   -0.01312
168 C     0.05170    0.02325   -0.02497
169 C     0.00131   -0.00240    0.00364
170 C    -0.00143   -0.01906   -0.00462
171 C     0.00299   -0.00489    0.00128
172 C    -0.00532    0.00246   -0.00045
173 C     0.00032    0.00413    0.00585
174 C    -0.00221    0.00074   -0.00060
175 C    -0.00198    0.01135   -0.00145
176 C     0.02686   -0.01510   -0.01961
177 C     0.15943    0.05740    0.00296
178 C    -0.00597    0.00795    0.01524
179 C    -0.00262    0.01306    0.00052
180 C     0.02573   -0.03179    0.02828
181 C    -0.05672   -0.04029   -0.03462
182 C    -0.21640    0.31052   -0.07401
183 C     0.03429    0.07082   -0.03614
184 C    -0.00452   -0.00245    0.00150
185 C     0.23299    0.00228    0.00305
186 C    -0.04022    0.07335   -0.08213
187 C    -0.01364    0.00313    0.02268
188 C     0.00505    0.00183   -0.00504
189 C     0.01882   -0.01975   -0.04113
190 C     0.01382    0.03369    0.02352
191 C     0.00978   -0.01822   -0.00316
192 C    -0.00173   -0.00180    0.01682
193 C    -0.00365   -0.00178    0.00271
194 C     0.00383    0.00384    0.00134
195 C    -0.00186   -0.00363    0.00274
196 C     0.00548    0.00615    0.00335
197 C     0.00614    0.00613   -0.00133
198 C     0.00633    0.00546    0.00324
199 C     0.00260    0.00262    0.00387
200 C     0.00083    0.00084    0.02202
201 C    -0.19743   -0.03628    0.01642
202 C    -0.01210   -0.01175   -0.00147
203 C    -0.03665   -0.20042    0.01703
204 C    -0.01516   -0.00237   -0.00991
205 C     0.01594    0.01546    0.01692
206 C    -0.00229   -0.01502   -0.00945
207 C    -0.00071   -0.00078   -0.00306
208 C     0.02275    0.03558    0.00584
209 C    -0.03584   -0.03611   -0.06602
210 C     0.03521    0.02194    0.00519
211 C    -0.00216   -0.00236    0.01141
212 N    -0.12877   -0.12652    0.14068
213 C    -0.00260   -0.00195    0.01147
214 C    -0.01089   -0.01074    0.02533

Writing to _singlet.gpw (mode='all')

Timing:                                      incl.     excl.
-------------------------------------------------------------------
Density initialized from wave functions:     0.859     0.859   0.0% |
 Symmetrize density:                         0.000     0.000   0.0% |
Forces:                                   7585.571  7585.571   1.8% ||
Hamiltonian:                                 3.676     0.032   0.0% |
 Atomic:                                     1.543     0.003   0.0% |
  XC Correction:                             1.540     1.540   0.0% |
 Calculate atomic Hamiltonians:              0.540     0.540   0.0% |
 Communicate:                                0.682     0.682   0.0% |
 Initialize Hamiltonian:                     0.000     0.000   0.0% |
 Poisson:                                    0.002     0.002   0.0% |
 XC 3D grid:                                 0.878     0.878   0.0% |
LCAO initialization:                        11.577     0.076   0.0% |
 LCAO eigensolver:                           1.912     0.002   0.0% |
  Calculate projections:                     0.004     0.004   0.0% |
  DenseAtomicCorrection:                     0.008     0.008   0.0% |
  Distribute overlap matrix:                 0.120     0.120   0.0% |
  Orbital Layouts:                           0.844     0.844   0.0% |
  Potential matrix:                          0.933     0.933   0.0% |
 LCAO to grid:                               8.442     8.442   0.0% |
 Set positions (LCAO WFS):                   1.147     0.263   0.0% |
  Basic WFS set positions:                   0.011     0.011   0.0% |
  Basis functions set positions:             0.001     0.001   0.0% |
  P tci:                                     0.066     0.066   0.0% |
  ST tci:                                    0.093     0.093   0.0% |
  mktci:                                     0.713     0.713   0.0% |
PWDescriptor:                                0.024     0.024   0.0% |
Redistribute:                                0.002     0.002   0.0% |
SCF-cycle:                               90558.058     7.819   0.0% |
 Apply H:                                 1814.302  1814.294   0.4% |
  HMM T:                                     0.007     0.007   0.0% |
 Density:                                    1.322     0.000   0.0% |
  Atomic density matrices:                   0.053     0.053   0.0% |
  Mix:                                       1.012     1.012   0.0% |
  Multipole moments:                         0.001     0.001   0.0% |
  Pseudo density:                            0.256     0.256   0.0% |
   Symmetrize density:                       0.000     0.000   0.0% |
 Direct Minimisation step:               88720.611    85.796   0.0% |
  Apply H:                               20209.755 20209.676   4.8% |-|
   HMM T:                                    0.078     0.078   0.0% |
  Density:                                  20.422     0.001   0.0% |
   Atomic density matrices:                  0.826     0.826   0.0% |
   Mix:                                     15.775    15.775   0.0% |
   Multipole moments:                        0.011     0.011   0.0% |
   Pseudo density:                           3.808     3.807   0.0% |
    Symmetrize density:                      0.001     0.001   0.0% |
  Get Search Direction:                     36.815    36.815   0.0% |
  Hamiltonian:                              58.368     0.403   0.0% |
   Atomic:                                  24.177     0.057   0.0% |
    XC Correction:                          24.120    24.120   0.0% |
   Calculate atomic Hamiltonians:            8.516     8.516   0.0% |
   Communicate:                             10.713    10.713   0.0% |
   New Kinetic Energy:                       1.909     1.909   0.0% |
   Poisson:                                  0.014     0.014   0.0% |
   XC 3D grid:                              12.635    12.635   0.0% |
  Inner loop:                            68265.135    98.984   0.0% |
   Energy and gradients:                 67803.861     0.244   0.0% |
    Unitary gradients:                      77.149    77.149   0.0% |
    e/g grid calculations:               67726.468   132.979   0.0% |
     Apply H:                            67593.489 67593.179  16.1% |-----|
      HMM T:                                 0.310     0.310   0.0% |
   Unitary matrix:                          55.040    55.040   0.0% |
   Update Kohn-Sham energy:                307.250    44.002   0.0% |
    Density:                                68.384     0.004   0.0% |
     Atomic density matrices:                2.733     2.733   0.0% |
     Mix:                                   52.569    52.569   0.0% |
     Multipole moments:                      0.044     0.044   0.0% |
     Pseudo density:                        13.033    13.031   0.0% |
      Symmetrize density:                    0.003     0.003   0.0% |
    Hamiltonian:                           194.864     1.375   0.0% |
     Atomic:                                80.871     0.196   0.0% |
      XC Correction:                        80.674    80.674   0.0% |
     Calculate atomic Hamiltonians:         28.195    28.195   0.0% |
     Communicate:                           35.902    35.902   0.0% |
     New Kinetic Energy:                     6.380     6.380   0.0% |
     Poisson:                                0.073     0.073   0.0% |
     XC 3D grid:                            42.067    42.067   0.0% |
  Orthonormalize:                           31.127     0.035   0.0% |
   Orthonormalize:                           0.395     0.000   0.0% |
    calc_s_matrix:                           0.024     0.024   0.0% |
    inverse-cholesky:                        0.052     0.052   0.0% |
    projections:                             0.282     0.282   0.0% |
    rotate_psi_s:                            0.035     0.035   0.0% |
   calc_s_matrix:                            1.855     1.855   0.0% |
   inverse-cholesky:                         4.153     4.153   0.0% |
   projections:                             21.926    21.926   0.0% |
   rotate_psi_s:                             2.764     2.764   0.0% |
  projections:                              13.192    13.192   0.0% |
 Hamiltonian:                                3.713     0.025   0.0% |
  Atomic:                                    1.548     0.005   0.0% |
   XC Correction:                            1.543     1.543   0.0% |
  Calculate atomic Hamiltonians:             0.537     0.537   0.0% |
  Communicate:                               0.674     0.674   0.0% |
  New Kinetic Energy:                        0.125     0.125   0.0% |
  Poisson:                                   0.001     0.001   0.0% |
  XC 3D grid:                                0.803     0.803   0.0% |
 Orthonormalize:                             0.790     0.000   0.0% |
  Orthonormalize:                            0.790     0.001   0.0% |
   calc_s_matrix:                            0.048     0.048   0.0% |
   inverse-cholesky:                         0.106     0.106   0.0% |
   projections:                              0.564     0.564   0.0% |
   rotate_psi_s:                             0.072     0.072   0.0% |
 Subspace diag:                              8.666     0.001   0.0% |
  calc_h_matrix:                             8.402     0.043   0.0% |
   Apply H:                                  8.359     8.358   0.0% |
    HMM T:                                   0.001     0.001   0.0% |
  diagonalize:                               0.227     0.227   0.0% |
  rotate_psi:                                0.036     0.036   0.0% |
 projections:                                0.835     0.835   0.0% |
Set symmetry:                                0.000     0.000   0.0% |
Other:                                   322734.006 322734.006  76.7% |------------------------------|
-------------------------------------------------------------------
Total:                                             420893.774 100.0%

Memory usage: 5.52 GiB
Date: Tue Sep  2 20:13:33 2025
