
  ___ ___ ___ _ _ _  
 |   |   |_  | | | | 
 | | | | | . | | | | 
 |__ |  _|___|_____|  24.6.0
 |___|_|             

User:   ac2uoma125@g03r1n28
Date:   Sat Aug 30 00:54:10 2025
Arch:   x86_64
Pid:    46893
CWD:    /work/home/ac2uoma125/gpaw/hse06_nvcenter_215/spin-purified-forces
Python: 3.12.5
gpaw:   /work/home/ac2uoma125/anaconda3/envs/gpaw2460/lib/python3.12/site-packages/gpaw
_gpaw:  /work/home/ac2uoma125/anaconda3/envs/gpaw2460/lib/python3.12/site-packages/
        _gpaw.cpython-312-x86_64-linux-gnu.so
ase:    /work/home/ac2uoma125/anaconda3/envs/gpaw2460/lib/python3.12/site-packages/ase (version 3.23.0)
numpy:  /work/home/ac2uoma125/anaconda3/envs/gpaw2460/lib/python3.12/site-packages/numpy (version 1.26.4)
scipy:  /work/home/ac2uoma125/anaconda3/envs/gpaw2460/lib/python3.12/site-packages/scipy (version 1.14.1)
libxc:  6.2.2
units:  Angstrom and eV
cores: 64
OpenMP: True
OMP_NUM_THREADS: 1

Reading from ../tri_gs_relax/triplet-ground-state.gpw
Read dipole, energy, forces, free_energy, magmom, magmoms
Reading input parameters:
  charge: -1
  eigensolver: {blocksize: 1,
                converge_unocc: True,
                excited_state: False,
                functional: {'name': 'ks'},
                grad_tol_inner_loop: 0.0005,
                grad_tol_pz_localization: 0.0005,
                linesearch_algo: {'name': 'max-step', 'max_step': 0.2},
                localization_tol: None,
                localizationseed: None,
                localizationtype: None,
                max_step_inner_loop: 0.2,
                maxiter_inner_loop: 6,
                maxiter_pz_localization: 50,
                maxiter_unocc: 333,
                momevery: 10,
                name: etdm-fdpw,
                need_init_orbs: False,
                need_localization: False,
                printinnerloop: False,
                restart_canonical: True,
                restartevery_iloop_notconverged: 3,
                searchdir_algo: {'name': 'l-bfgs', 'memory': 3},
                use_prec: True}
  mixer: {backend: no-mixing}
  mode: {ecut: 600.0,
         name: pw}
  nbands: -12
  occupations: {name: fixed-uniform}
  spinpol: True
  symmetry: off
  xc: HSE06

Initialize ...

species:
  C:
    name: Carbon
    id: 4aa54d4b901d75f77cc0ea3eec22967b
    Z: 6.0
    valence: 4
    core: 2
    charge: 0.0
    file: /work/home/ac2uoma125/anaconda3/envs/gpaw2460/share/gpaw/C.PBE.gz
    compensation charges: {type: gauss,
                           rc: 0.20,
                           lmax: 2}
    cutoffs: {filter: 1.14,
              core: 1.14}
    projectors:
      #              energy  rcut
      - 2s(2.00)   -13.751   0.635
      - 2p(2.00)    -5.284   0.635
      -  s          13.461   0.635
      -  p          21.927   0.635
      -  d           0.000   0.635
  
    # Using partial waves for C as LCAO basis

  N:
    name: Nitrogen
    id: f7500608b86eaa90eef8b1d9a670dc53
    Z: 7.0
    valence: 5
    core: 2
    charge: 0.0
    file: /work/home/ac2uoma125/anaconda3/envs/gpaw2460/share/gpaw/N.PBE.gz
    compensation charges: {type: gauss,
                           rc: 0.18,
                           lmax: 2}
    cutoffs: {filter: 1.11,
              core: 0.96}
    projectors:
      #              energy  rcut
      - 2s(2.00)   -18.583   0.603
      - 2p(3.00)    -7.089   0.529
      -  s           8.629   0.603
      -  p          20.123   0.529
      -  d           0.000   0.577
  
    # Using partial waves for N as LCAO basis

Reference energy: -221394.138216  # eV

Spin-polarized calculation.
Magnetic moment: 2.000000

Convergence criteria:
 Maximum [total energy] change in last 3 cyles: 0.0005 eV / valence electron
 Maximum integral of absolute [dens]ity change: 0.0001 electrons / valence electron
 Maximum integral of absolute [eigenst]ate change: 4e-08 eV^2 / valence electron
 Maximum number of scf [iter]ations: 333
 (Square brackets indicate name in SCF output, whereas a 'c' in
 the SCF output indicates the quantity has converged.)

Symmetries present (total): 1

  ( 1  0  0)
  ( 0  1  0)
  ( 0  0  1)

1 k-point (Gamma)
1 k-point in the irreducible part of the Brillouin zone
       k-points in crystal coordinates                weights
   0:     0.00000000    0.00000000    0.00000000          1/1

Wave functions: Plane wave expansion
  Cutoff energy: 600.000 eV
  Number of coefficients: 40243 (reduced to 20122)
  Pulay-stress correction: 0.000000 eV/Ang^3 (de/decut=0.000000)
  Using FFTW library
  ScaLapack parameters: grid=1x1, blocksize=None
  Wavefunction extrapolation:
    Improved wavefunction reuse through dual PAW basis 

Occupation numbers: # Uniform distribution of occupation numbers 

Eigensolver
   Direct minimisation using exponential transformation.
       Search direction: L-BFGS algorithm
       Line search: step size equals one
       Preconditioning: True
       Orbital-density self-interaction corrections: ks
       WARNING: do not use it for metals as occupation numbers are
                not found variationally
 

Densities:
  Coarse grid: 63*63*63 grid
  Fine grid: 126*126*126 grid
  Total Charge: -1.000000 

Density mixing:
  Method: difference
  Backend: no-mixing
  Linear mixing parameter: 0
  old densities: 0
  Damping of long wavelength oscillations: 0 

Hamiltonian:
  XC and Coulomb potentials evaluated on a 126*126*126 grid
  Using the HSE06 Exchange-Correlation functional
  External potential:
    NoExternalPotential
Poisson solver:
  Uniform background charge: -1.000 electrons
 

XC parameters: HYB_GGA_XC_HSE06 + 0.25 * EXX(omega = 0.11 bohr^-1)

Memory estimate:
  Process memory now: 5189.12 MiB
Attribute error: AttributeError("'HybridXC' object has no attribute 'estimate_memory'")
Some object probably lacks estimate_memory() method
Memory breakdown may be incomplete
  Calculator: 2.74 MiB
    Density: 1.93 MiB
      Arrays: 1.09 MiB
      Localized functions: 0.83 MiB
      Mixer: 0.00 MiB
    Hamiltonian: 0.81 MiB
      Arrays: 0.81 MiB

Total number of cores used: 64
Domain decomposition: 4 x 4 x 4

Number of atoms: 215
Number of atomic orbitals: 860
Number of bands in calculation: 444
Number of valence electrons: 862
Bands to converge: all

... initialized

Initializing position-dependent things.

Density initialized from wave functions
        .--------C----------------.  
       /|           C             |  
      / | C       C  C C   C      |  
     / C|    C  C    C  C     C   |  
    /  C|C    C C C    C CCC   C  |  
   /    C C C    C C      N CC    |  
  /  C C| CCCCCC  C C C    C CC   |  
 *    C C   CCCCC    C C C    C C |  
 |C    CCC C  CCCCC C  CCCCC   C C|  
 | C C  CCC C    CCC C C  CCC     C  
 |  C C | CCCC C  CCCCC C  CC C   |  
 C   CC C C C C C    CCC C   CC   |  
 |    CCCC C C CCCCC C CCCC C  C  |  
 |     C.CC-C-C-C-CC-C-C-C-C-C----.  
 |  C C/C CCCC   C C CC C C CCC  /   
 |   CC     C CC    C C      C  /    
 |   /C C      CCCC    C C     /     
 |  /    C C      C C      CC /      
 | /C       C        C C     /       
 |/                     C   /        
 C----------------C--------*         

Positions:
   0 C      0.002372    0.002372    0.002372    ( 0.0000,  0.0000,  0.0000)
   1 C     -0.000177    1.774292    1.774292    ( 0.0000,  0.0000,  0.0000)
   2 C      1.774292    1.774292   -0.000177    ( 0.0000,  0.0000,  0.0000)
   3 C      1.774292   -0.000177    1.774292    ( 0.0000,  0.0000,  0.0000)
   4 C      2.660291    0.886016    2.660291    ( 0.0000,  0.0000,  0.0000)
   5 C      0.887932    0.887932    0.887932    ( 0.0000,  0.0000,  0.0000)
   6 C      0.886016    2.660291    2.660291    ( 0.0000,  0.0000,  0.0000)
   7 C      2.660291    2.660291    0.886016    ( 0.0000,  0.0000,  0.0000)
   8 C     -0.001720   -0.001720    3.550221    ( 0.0000,  0.0000,  0.0000)
   9 C     -0.001514    1.772014    5.320396    ( 0.0000,  0.0000,  0.0000)
  10 C      1.772639    1.772639    3.546938    ( 0.0000,  0.0000,  0.0000)
  11 C      1.772014   -0.001514    5.320396    ( 0.0000,  0.0000,  0.0000)
  12 C      2.658540    0.886445    6.206956    ( 0.0000,  0.0000,  0.0000)
  13 C      0.885452    0.885452    4.434520    ( 0.0000,  0.0000,  0.0000)
  14 C      0.886445    2.658540    6.206956    ( 0.0000,  0.0000,  0.0000)
  15 C      2.659334    2.659334    4.433008    ( 0.0000,  0.0000,  0.0000)
  16 C      0.005597    0.005597    7.096195    ( 0.0000,  0.0000,  0.0000)
  17 C      0.000909    1.776657    8.866874    ( 0.0000,  0.0000,  0.0000)
  18 C      1.773012    1.773012    7.093113    ( 0.0000,  0.0000,  0.0000)
  19 C      1.776657    0.000909    8.866874    ( 0.0000,  0.0000,  0.0000)
  20 C      2.662759    0.886233    9.752379    ( 0.0000,  0.0000,  0.0000)
  21 C      0.889792    0.889792    7.980502    ( 0.0000,  0.0000,  0.0000)
  22 C      0.886233    2.662759    9.752379    ( 0.0000,  0.0000,  0.0000)
  23 C      2.657417    2.657417    7.978135    ( 0.0000,  0.0000,  0.0000)
  24 C     -0.001720    3.550221   -0.001720    ( 0.0000,  0.0000,  0.0000)
  25 C     -0.001514    5.320396    1.772014    ( 0.0000,  0.0000,  0.0000)
  26 C      1.772014    5.320396   -0.001514    ( 0.0000,  0.0000,  0.0000)
  27 C      1.772639    3.546938    1.772639    ( 0.0000,  0.0000,  0.0000)
  28 C      2.659334    4.433008    2.659334    ( 0.0000,  0.0000,  0.0000)
  29 C      0.885452    4.434520    0.885452    ( 0.0000,  0.0000,  0.0000)
  30 C      0.886445    6.206956    2.658540    ( 0.0000,  0.0000,  0.0000)
  31 C      2.658540    6.206956    0.886445    ( 0.0000,  0.0000,  0.0000)
  32 C     -0.001669    3.546694    3.546694    ( 0.0000,  0.0000,  0.0000)
  33 C     -0.002583    5.319921    5.319921    ( 0.0000,  0.0000,  0.0000)
  34 C      1.771768    5.319199    3.545991    ( 0.0000,  0.0000,  0.0000)
  35 C      1.771768    3.545991    5.319199    ( 0.0000,  0.0000,  0.0000)
  36 C      2.657674    4.432033    6.205470    ( 0.0000,  0.0000,  0.0000)
  37 C      0.884954    4.433087    4.433087    ( 0.0000,  0.0000,  0.0000)
  38 C      0.883451    6.206763    6.206763    ( 0.0000,  0.0000,  0.0000)
  39 C      2.657674    6.205470    4.432033    ( 0.0000,  0.0000,  0.0000)
  40 C      0.000014    3.545859    7.091609    ( 0.0000,  0.0000,  0.0000)
  41 C     -0.010700    5.330071    8.863338    ( 0.0000,  0.0000,  0.0000)
  42 C      1.771117    5.320902    7.092299    ( 0.0000,  0.0000,  0.0000)
  43 C      1.770943    3.548938    8.865634    ( 0.0000,  0.0000,  0.0000)
  44 C      2.658959    4.434080    9.751333    ( 0.0000,  0.0000,  0.0000)
  45 C      0.881582    4.437692    7.977967    ( 0.0000,  0.0000,  0.0000)
  46 C      0.885071    6.209040    9.751980    ( 0.0000,  0.0000,  0.0000)
  47 C      2.660173    6.206484    7.978018    ( 0.0000,  0.0000,  0.0000)
  48 C      0.005597    7.096195    0.005597    ( 0.0000,  0.0000,  0.0000)
  49 C      0.000909    8.866874    1.776657    ( 0.0000,  0.0000,  0.0000)
  50 C      1.776657    8.866874    0.000909    ( 0.0000,  0.0000,  0.0000)
  51 C      1.773012    7.093113    1.773012    ( 0.0000,  0.0000,  0.0000)
  52 C      2.657417    7.978135    2.657417    ( 0.0000,  0.0000,  0.0000)
  53 C      0.889792    7.980502    0.889792    ( 0.0000,  0.0000,  0.0000)
  54 C      0.886233    9.752379    2.662759    ( 0.0000,  0.0000,  0.0000)
  55 C      2.662759    9.752379    0.886233    ( 0.0000,  0.0000,  0.0000)
  56 C      0.000014    7.091609    3.545859    ( 0.0000,  0.0000,  0.0000)
  57 C     -0.010700    8.863338    5.330071    ( 0.0000,  0.0000,  0.0000)
  58 C      1.770943    8.865634    3.548938    ( 0.0000,  0.0000,  0.0000)
  59 C      1.771117    7.092299    5.320902    ( 0.0000,  0.0000,  0.0000)
  60 C      2.660173    7.978018    6.206484    ( 0.0000,  0.0000,  0.0000)
  61 C      0.881582    7.977967    4.437692    ( 0.0000,  0.0000,  0.0000)
  62 C      0.885071    9.751980    6.209040    ( 0.0000,  0.0000,  0.0000)
  63 C      2.658959    9.751333    4.434080    ( 0.0000,  0.0000,  0.0000)
  64 C     -0.005349    7.094062    7.094062    ( 0.0000,  0.0000,  0.0000)
  65 C      0.007882    8.871270    8.871270    ( 0.0000,  0.0000,  0.0000)
  66 C      1.773973    8.865184    7.093341    ( 0.0000,  0.0000,  0.0000)
  67 C      1.773973    7.093341    8.865184    ( 0.0000,  0.0000,  0.0000)
  68 C      2.662178    7.979334    9.751729    ( 0.0000,  0.0000,  0.0000)
  69 C      0.887169    7.980595    7.980595    ( 0.0000,  0.0000,  0.0000)
  70 C      0.891775    9.755494    9.755494    ( 0.0000,  0.0000,  0.0000)
  71 C      2.662178    9.751729    7.979334    ( 0.0000,  0.0000,  0.0000)
  72 C      3.550221   -0.001720   -0.001720    ( 0.0000,  0.0000,  0.0000)
  73 C      3.546938    1.772639    1.772639    ( 0.0000,  0.0000,  0.0000)
  74 C      5.320396    1.772014   -0.001514    ( 0.0000,  0.0000,  0.0000)
  75 C      5.320396   -0.001514    1.772014    ( 0.0000,  0.0000,  0.0000)
  76 C      6.206956    0.886445    2.658540    ( 0.0000,  0.0000,  0.0000)
  77 C      4.434520    0.885452    0.885452    ( 0.0000,  0.0000,  0.0000)
  78 C      4.433008    2.659334    2.659334    ( 0.0000,  0.0000,  0.0000)
  79 C      6.206956    2.658540    0.886445    ( 0.0000,  0.0000,  0.0000)
  80 C      3.546694   -0.001669    3.546694    ( 0.0000,  0.0000,  0.0000)
  81 C      3.545991    1.771768    5.319199    ( 0.0000,  0.0000,  0.0000)
  82 C      5.319199    1.771768    3.545991    ( 0.0000,  0.0000,  0.0000)
  83 C      5.319921   -0.002583    5.319921    ( 0.0000,  0.0000,  0.0000)
  84 C      6.206763    0.883451    6.206763    ( 0.0000,  0.0000,  0.0000)
  85 C      4.433087    0.884954    4.433087    ( 0.0000,  0.0000,  0.0000)
  86 C      4.432033    2.657674    6.205470    ( 0.0000,  0.0000,  0.0000)
  87 C      6.205470    2.657674    4.432033    ( 0.0000,  0.0000,  0.0000)
  88 C      3.545859    0.000014    7.091609    ( 0.0000,  0.0000,  0.0000)
  89 C      3.548938    1.770943    8.865634    ( 0.0000,  0.0000,  0.0000)
  90 C      5.320902    1.771117    7.092299    ( 0.0000,  0.0000,  0.0000)
  91 C      5.330071   -0.010700    8.863338    ( 0.0000,  0.0000,  0.0000)
  92 C      6.209040    0.885071    9.751980    ( 0.0000,  0.0000,  0.0000)
  93 C      4.437692    0.881582    7.977967    ( 0.0000,  0.0000,  0.0000)
  94 C      4.434080    2.658959    9.751333    ( 0.0000,  0.0000,  0.0000)
  95 C      6.206484    2.660173    7.978018    ( 0.0000,  0.0000,  0.0000)
  96 C      3.546694    3.546694   -0.001669    ( 0.0000,  0.0000,  0.0000)
  97 C      3.545991    5.319199    1.771768    ( 0.0000,  0.0000,  0.0000)
  98 C      5.319921    5.319921   -0.002583    ( 0.0000,  0.0000,  0.0000)
  99 C      5.319199    3.545991    1.771768    ( 0.0000,  0.0000,  0.0000)
 100 C      6.205470    4.432033    2.657674    ( 0.0000,  0.0000,  0.0000)
 101 C      4.433087    4.433087    0.884954    ( 0.0000,  0.0000,  0.0000)
 102 C      4.432033    6.205470    2.657674    ( 0.0000,  0.0000,  0.0000)
 103 C      6.206763    6.206763    0.883451    ( 0.0000,  0.0000,  0.0000)
 104 C      3.546165    3.546165    3.546165    ( 0.0000,  0.0000,  0.0000)
 105 C      3.546493    5.320207    5.320207    ( 0.0000,  0.0000,  0.0000)
 106 C      5.320207    5.320207    3.546493    ( 0.0000,  0.0000,  0.0000)
 107 C      5.320207    3.546493    5.320207    ( 0.0000,  0.0000,  0.0000)
 108 C      6.204957    4.435216    6.204957    ( 0.0000,  0.0000,  0.0000)
 109 C      4.432681    4.432681    4.432681    ( 0.0000,  0.0000,  0.0000)
 110 C      4.435216    6.204957    6.204957    ( 0.0000,  0.0000,  0.0000)
 111 C      6.204957    6.204957    4.435216    ( 0.0000,  0.0000,  0.0000)
 112 C      3.540875    3.540875    7.092749    ( 0.0000,  0.0000,  0.0000)
 113 C      3.546107    5.318967    8.863917    ( 0.0000,  0.0000,  0.0000)
 114 C      5.319652    5.319652    7.095926    ( 0.0000,  0.0000,  0.0000)
 115 C      5.318967    3.546107    8.863917    ( 0.0000,  0.0000,  0.0000)
 116 C      6.209079    4.430145    9.754367    ( 0.0000,  0.0000,  0.0000)
 117 C      4.423602    4.423602    7.973369    ( 0.0000,  0.0000,  0.0000)
 118 C      4.430145    6.209079    9.754367    ( 0.0000,  0.0000,  0.0000)
 119 C      6.145582    6.145582    8.012744    ( 0.0000,  0.0000,  0.0000)
 120 C      3.545859    7.091609    0.000014    ( 0.0000,  0.0000,  0.0000)
 121 C      3.548938    8.865634    1.770943    ( 0.0000,  0.0000,  0.0000)
 122 C      5.330071    8.863338   -0.010700    ( 0.0000,  0.0000,  0.0000)
 123 C      5.320902    7.092299    1.771117    ( 0.0000,  0.0000,  0.0000)
 124 C      6.206484    7.978018    2.660173    ( 0.0000,  0.0000,  0.0000)
 125 C      4.437692    7.977967    0.881582    ( 0.0000,  0.0000,  0.0000)
 126 C      4.434080    9.751333    2.658959    ( 0.0000,  0.0000,  0.0000)
 127 C      6.209040    9.751980    0.885071    ( 0.0000,  0.0000,  0.0000)
 128 C      3.540875    7.092749    3.540875    ( 0.0000,  0.0000,  0.0000)
 129 C      3.546107    8.863917    5.318967    ( 0.0000,  0.0000,  0.0000)
 130 C      5.318967    8.863917    3.546107    ( 0.0000,  0.0000,  0.0000)
 131 C      5.319652    7.095926    5.319652    ( 0.0000,  0.0000,  0.0000)
 132 C      6.145582    8.012744    6.145582    ( 0.0000,  0.0000,  0.0000)
 133 C      4.423602    7.973369    4.423602    ( 0.0000,  0.0000,  0.0000)
 134 C      4.430145    9.754367    6.209079    ( 0.0000,  0.0000,  0.0000)
 135 C      6.209079    9.754367    4.430145    ( 0.0000,  0.0000,  0.0000)
 136 C      3.550030    7.090855    7.090855    ( 0.0000,  0.0000,  0.0000)
 137 C      3.552115    8.861877    8.861877    ( 0.0000,  0.0000,  0.0000)
 138 C      5.332666    8.847031    7.083222    ( 0.0000,  0.0000,  0.0000)
 139 C      5.332666    7.083222    8.847031    ( 0.0000,  0.0000,  0.0000)
 140 C      6.223423    7.971641    9.734620    ( 0.0000,  0.0000,  0.0000)
 141 C      4.440870    7.974370    7.974370    ( 0.0000,  0.0000,  0.0000)
 142 C      4.438713    9.748724    9.748724    ( 0.0000,  0.0000,  0.0000)
 143 C      6.223423    9.734620    7.971641    ( 0.0000,  0.0000,  0.0000)
 144 C      7.096195    0.005597    0.005597    ( 0.0000,  0.0000,  0.0000)
 145 C      7.093113    1.773012    1.773012    ( 0.0000,  0.0000,  0.0000)
 146 C      8.866874    1.776657    0.000909    ( 0.0000,  0.0000,  0.0000)
 147 C      8.866874    0.000909    1.776657    ( 0.0000,  0.0000,  0.0000)
 148 C      9.752379    0.886233    2.662759    ( 0.0000,  0.0000,  0.0000)
 149 C      7.980502    0.889792    0.889792    ( 0.0000,  0.0000,  0.0000)
 150 C      7.978135    2.657417    2.657417    ( 0.0000,  0.0000,  0.0000)
 151 C      9.752379    2.662759    0.886233    ( 0.0000,  0.0000,  0.0000)
 152 C      7.091609    0.000014    3.545859    ( 0.0000,  0.0000,  0.0000)
 153 C      7.092299    1.771117    5.320902    ( 0.0000,  0.0000,  0.0000)
 154 C      8.865634    1.770943    3.548938    ( 0.0000,  0.0000,  0.0000)
 155 C      8.863338   -0.010700    5.330071    ( 0.0000,  0.0000,  0.0000)
 156 C      9.751980    0.885071    6.209040    ( 0.0000,  0.0000,  0.0000)
 157 C      7.977967    0.881582    4.437692    ( 0.0000,  0.0000,  0.0000)
 158 C      7.978018    2.660173    6.206484    ( 0.0000,  0.0000,  0.0000)
 159 C      9.751333    2.658959    4.434080    ( 0.0000,  0.0000,  0.0000)
 160 C      7.094062   -0.005349    7.094062    ( 0.0000,  0.0000,  0.0000)
 161 C      7.093341    1.773973    8.865184    ( 0.0000,  0.0000,  0.0000)
 162 C      8.865184    1.773973    7.093341    ( 0.0000,  0.0000,  0.0000)
 163 C      8.871270    0.007882    8.871270    ( 0.0000,  0.0000,  0.0000)
 164 C      9.755494    0.891775    9.755494    ( 0.0000,  0.0000,  0.0000)
 165 C      7.980595    0.887169    7.980595    ( 0.0000,  0.0000,  0.0000)
 166 C      7.979334    2.662178    9.751729    ( 0.0000,  0.0000,  0.0000)
 167 C      9.751729    2.662178    7.979334    ( 0.0000,  0.0000,  0.0000)
 168 C      7.091609    3.545859    0.000014    ( 0.0000,  0.0000,  0.0000)
 169 C      7.092299    5.320902    1.771117    ( 0.0000,  0.0000,  0.0000)
 170 C      8.863338    5.330071   -0.010700    ( 0.0000,  0.0000,  0.0000)
 171 C      8.865634    3.548938    1.770943    ( 0.0000,  0.0000,  0.0000)
 172 C      9.751333    4.434080    2.658959    ( 0.0000,  0.0000,  0.0000)
 173 C      7.977967    4.437692    0.881582    ( 0.0000,  0.0000,  0.0000)
 174 C      7.978018    6.206484    2.660173    ( 0.0000,  0.0000,  0.0000)
 175 C      9.751980    6.209040    0.885071    ( 0.0000,  0.0000,  0.0000)
 176 C      7.092749    3.540875    3.540875    ( 0.0000,  0.0000,  0.0000)
 177 C      7.095926    5.319652    5.319652    ( 0.0000,  0.0000,  0.0000)
 178 C      8.863917    5.318967    3.546107    ( 0.0000,  0.0000,  0.0000)
 179 C      8.863917    3.546107    5.318967    ( 0.0000,  0.0000,  0.0000)
 180 C      9.754367    4.430145    6.209079    ( 0.0000,  0.0000,  0.0000)
 181 C      7.973369    4.423602    4.423602    ( 0.0000,  0.0000,  0.0000)
 182 C      8.012744    6.145582    6.145582    ( 0.0000,  0.0000,  0.0000)
 183 C      9.754367    6.209079    4.430145    ( 0.0000,  0.0000,  0.0000)
 184 C      7.090855    3.550030    7.090855    ( 0.0000,  0.0000,  0.0000)
 185 C      7.083222    5.332666    8.847031    ( 0.0000,  0.0000,  0.0000)
 186 C      8.847031    5.332666    7.083222    ( 0.0000,  0.0000,  0.0000)
 187 C      8.861877    3.552115    8.861877    ( 0.0000,  0.0000,  0.0000)
 188 C      9.748724    4.438713    9.748724    ( 0.0000,  0.0000,  0.0000)
 189 C      7.974370    4.440870    7.974370    ( 0.0000,  0.0000,  0.0000)
 190 C      7.971641    6.223423    9.734620    ( 0.0000,  0.0000,  0.0000)
 191 C      9.734620    6.223423    7.971641    ( 0.0000,  0.0000,  0.0000)
 192 C      7.094062    7.094062   -0.005349    ( 0.0000,  0.0000,  0.0000)
 193 C      7.093341    8.865184    1.773973    ( 0.0000,  0.0000,  0.0000)
 194 C      8.871270    8.871270    0.007882    ( 0.0000,  0.0000,  0.0000)
 195 C      8.865184    7.093341    1.773973    ( 0.0000,  0.0000,  0.0000)
 196 C      9.751729    7.979334    2.662178    ( 0.0000,  0.0000,  0.0000)
 197 C      7.980595    7.980595    0.887169    ( 0.0000,  0.0000,  0.0000)
 198 C      7.979334    9.751729    2.662178    ( 0.0000,  0.0000,  0.0000)
 199 C      9.755494    9.755494    0.891775    ( 0.0000,  0.0000,  0.0000)
 200 C      7.090855    7.090855    3.550030    ( 0.0000,  0.0000,  0.0000)
 201 C      7.083222    8.847031    5.332666    ( 0.0000,  0.0000,  0.0000)
 202 C      8.861877    8.861877    3.552115    ( 0.0000,  0.0000,  0.0000)
 203 C      8.847031    7.083222    5.332666    ( 0.0000,  0.0000,  0.0000)
 204 C      9.734620    7.971641    6.223423    ( 0.0000,  0.0000,  0.0000)
 205 C      7.974370    7.974370    4.440870    ( 0.0000,  0.0000,  0.0000)
 206 C      7.971641    9.734620    6.223423    ( 0.0000,  0.0000,  0.0000)
 207 C      9.748724    9.748724    4.438713    ( 0.0000,  0.0000,  0.0000)
 208 C      7.136597    8.864770    8.864770    ( 0.0000,  0.0000,  0.0000)
 209 C      8.864770    8.864770    7.136597    ( 0.0000,  0.0000,  0.0000)
 210 C      8.864770    7.136597    8.864770    ( 0.0000,  0.0000,  0.0000)
 211 C      9.766565    7.984371    9.766565    ( 0.0000,  0.0000,  0.0000)
 212 N      8.067138    8.067138    8.067138    ( 0.0000,  0.0000,  2.0000)
 213 C      7.984371    9.766565    9.766565    ( 0.0000,  0.0000,  0.0000)
 214 C      9.766565    9.766565    7.984371    ( 0.0000,  0.0000,  0.0000)

Unit cell:
           periodic     x           y           z      points  spacing
  1. axis:    yes   10.639295    0.000000    0.000000    63     0.1689
  2. axis:    yes    0.000000   10.639295    0.000000    63     0.1689
  3. axis:    yes    0.000000    0.000000   10.639295    63     0.1689

  Lengths:  10.639295  10.639295  10.639295
  Angles:   90.000000  90.000000  90.000000

Effective grid spacing dv^(1/3) = 0.1689

     iter     time        total  log10-change:  magmom
                         energy   eigst   dens
iter:   1 01:08:53 -2157.623441   -7.95c -6.07c   +2.0000
iter:   2 01:16:18 -2157.623427   -8.29c -6.57c   +2.0000
iter:   3 01:23:44 -2157.623424c  -8.09c -6.11c   +2.0000

Occupied states converged after 4 e/g evaluations
Converge unoccupied states:
                                   wfs    
           time        Energy:     error(ev^2):
iter:   1  01:40:54   33.093070     1.3e-04

Unoccupied orbitals converged after 1 iterations

Converged after 3 iterations.

Dipole moment: (0.829633, 0.829633, 0.829633) |e|*Ang

Total magnetic moment: (0.000000, 0.000000, 2.000000)
Local magnetic moments:
   0 C  ( 0.000000,  0.000000,  0.000003)
   1 C  ( 0.000000,  0.000000,  0.000005)
   2 C  ( 0.000000,  0.000000,  0.000005)
   3 C  ( 0.000000,  0.000000,  0.000005)
   4 C  ( 0.000000,  0.000000,  0.000316)
   5 C  ( 0.000000,  0.000000,  0.000086)
   6 C  ( 0.000000,  0.000000,  0.000316)
   7 C  ( 0.000000,  0.000000,  0.000316)
   8 C  ( 0.000000,  0.000000,  0.000050)
   9 C  ( 0.000000,  0.000000, -0.000087)
  10 C  ( 0.000000,  0.000000, -0.000024)
  11 C  ( 0.000000,  0.000000, -0.000087)
  12 C  ( 0.000000,  0.000000,  0.001253)
  13 C  ( 0.000000,  0.000000,  0.000107)
  14 C  ( 0.000000,  0.000000,  0.001253)
  15 C  ( 0.000000,  0.000000,  0.000085)
  16 C  ( 0.000000,  0.000000,  0.000120)
  17 C  ( 0.000000,  0.000000, -0.000035)
  18 C  ( 0.000000,  0.000000,  0.000934)
  19 C  ( 0.000000,  0.000000, -0.000035)
  20 C  ( 0.000000,  0.000000,  0.000057)
  21 C  ( 0.000000,  0.000000,  0.000136)
  22 C  ( 0.000000,  0.000000,  0.000057)
  23 C  ( 0.000000,  0.000000,  0.000913)
  24 C  ( 0.000000,  0.000000,  0.000050)
  25 C  ( 0.000000,  0.000000, -0.000087)
  26 C  ( 0.000000,  0.000000, -0.000087)
  27 C  ( 0.000000,  0.000000, -0.000024)
  28 C  ( 0.000000,  0.000000,  0.000085)
  29 C  ( 0.000000,  0.000000,  0.000107)
  30 C  ( 0.000000,  0.000000,  0.001253)
  31 C  ( 0.000000,  0.000000,  0.001253)
  32 C  ( 0.000000,  0.000000, -0.000084)
  33 C  ( 0.000000,  0.000000, -0.001140)
  34 C  ( 0.000000,  0.000000, -0.000096)
  35 C  ( 0.000000,  0.000000, -0.000096)
  36 C  ( 0.000000,  0.000000,  0.000110)
  37 C  ( 0.000000,  0.000000,  0.000807)
  38 C  ( 0.000000,  0.000000,  0.000641)
  39 C  ( 0.000000,  0.000000,  0.000110)
  40 C  ( 0.000000,  0.000000,  0.002400)
  41 C  ( 0.000000,  0.000000, -0.000265)
  42 C  ( 0.000000,  0.000000, -0.000130)
  43 C  ( 0.000000,  0.000000, -0.000100)
  44 C  ( 0.000000,  0.000000,  0.000843)
  45 C  ( 0.000000,  0.000000,  0.000110)
  46 C  ( 0.000000,  0.000000,  0.000134)
  47 C  ( 0.000000,  0.000000,  0.001161)
  48 C  ( 0.000000,  0.000000,  0.000120)
  49 C  ( 0.000000,  0.000000, -0.000035)
  50 C  ( 0.000000,  0.000000, -0.000035)
  51 C  ( 0.000000,  0.000000,  0.000934)
  52 C  ( 0.000000,  0.000000,  0.000913)
  53 C  ( 0.000000,  0.000000,  0.000136)
  54 C  ( 0.000000,  0.000000,  0.000057)
  55 C  ( 0.000000,  0.000000,  0.000057)
  56 C  ( 0.000000,  0.000000,  0.002400)
  57 C  ( 0.000000,  0.000000, -0.000265)
  58 C  ( 0.000000,  0.000000, -0.000100)
  59 C  ( 0.000000,  0.000000, -0.000130)
  60 C  ( 0.000000,  0.000000,  0.001161)
  61 C  ( 0.000000,  0.000000,  0.000110)
  62 C  ( 0.000000,  0.000000,  0.000134)
  63 C  ( 0.000000,  0.000000,  0.000843)
  64 C  ( 0.000000,  0.000000, -0.000598)
  65 C  ( 0.000000,  0.000000, -0.000069)
  66 C  ( 0.000000,  0.000000, -0.000123)
  67 C  ( 0.000000,  0.000000, -0.000123)
  68 C  ( 0.000000,  0.000000,  0.000053)
  69 C  ( 0.000000,  0.000000,  0.000594)
  70 C  ( 0.000000,  0.000000,  0.000001)
  71 C  ( 0.000000,  0.000000,  0.000053)
  72 C  ( 0.000000,  0.000000,  0.000050)
  73 C  ( 0.000000,  0.000000, -0.000024)
  74 C  ( 0.000000,  0.000000, -0.000087)
  75 C  ( 0.000000,  0.000000, -0.000087)
  76 C  ( 0.000000,  0.000000,  0.001253)
  77 C  ( 0.000000,  0.000000,  0.000107)
  78 C  ( 0.000000,  0.000000,  0.000085)
  79 C  ( 0.000000,  0.000000,  0.001253)
  80 C  ( 0.000000,  0.000000, -0.000084)
  81 C  ( 0.000000,  0.000000, -0.000096)
  82 C  ( 0.000000,  0.000000, -0.000096)
  83 C  ( 0.000000,  0.000000, -0.001140)
  84 C  ( 0.000000,  0.000000,  0.000641)
  85 C  ( 0.000000,  0.000000,  0.000807)
  86 C  ( 0.000000,  0.000000,  0.000110)
  87 C  ( 0.000000,  0.000000,  0.000110)
  88 C  ( 0.000000,  0.000000,  0.002400)
  89 C  ( 0.000000,  0.000000, -0.000100)
  90 C  ( 0.000000,  0.000000, -0.000130)
  91 C  ( 0.000000,  0.000000, -0.000265)
  92 C  ( 0.000000,  0.000000,  0.000134)
  93 C  ( 0.000000,  0.000000,  0.000110)
  94 C  ( 0.000000,  0.000000,  0.000843)
  95 C  ( 0.000000,  0.000000,  0.001161)
  96 C  ( 0.000000,  0.000000, -0.000084)
  97 C  ( 0.000000,  0.000000, -0.000096)
  98 C  ( 0.000000,  0.000000, -0.001140)
  99 C  ( 0.000000,  0.000000, -0.000096)
 100 C  ( 0.000000,  0.000000,  0.000110)
 101 C  ( 0.000000,  0.000000,  0.000807)
 102 C  ( 0.000000,  0.000000,  0.000110)
 103 C  ( 0.000000,  0.000000,  0.000641)
 104 C  ( 0.000000,  0.000000, -0.000081)
 105 C  ( 0.000000,  0.000000, -0.000477)
 106 C  ( 0.000000,  0.000000, -0.000477)
 107 C  ( 0.000000,  0.000000, -0.000477)
 108 C  ( 0.000000,  0.000000,  0.006192)
 109 C  ( 0.000000,  0.000000,  0.000161)
 110 C  ( 0.000000,  0.000000,  0.006192)
 111 C  ( 0.000000,  0.000000,  0.006192)
 112 C  ( 0.000000,  0.000000,  0.001199)
 113 C  ( 0.000000,  0.000000, -0.001163)
 114 C  ( 0.000000,  0.000000, -0.009907)
 115 C  ( 0.000000,  0.000000, -0.001163)
 116 C  ( 0.000000,  0.000000,  0.015216)
 117 C  ( 0.000000,  0.000000,  0.014208)
 118 C  ( 0.000000,  0.000000,  0.015216)
 119 C  ( 0.000000,  0.000000,  0.233427)
 120 C  ( 0.000000,  0.000000,  0.002400)
 121 C  ( 0.000000,  0.000000, -0.000100)
 122 C  ( 0.000000,  0.000000, -0.000265)
 123 C  ( 0.000000,  0.000000, -0.000130)
 124 C  ( 0.000000,  0.000000,  0.001161)
 125 C  ( 0.000000,  0.000000,  0.000110)
 126 C  ( 0.000000,  0.000000,  0.000843)
 127 C  ( 0.000000,  0.000000,  0.000134)
 128 C  ( 0.000000,  0.000000,  0.001199)
 129 C  ( 0.000000,  0.000000, -0.001163)
 130 C  ( 0.000000,  0.000000, -0.001163)
 131 C  ( 0.000000,  0.000000, -0.009907)
 132 C  ( 0.000000,  0.000000,  0.233427)
 133 C  ( 0.000000,  0.000000,  0.014208)
 134 C  ( 0.000000,  0.000000,  0.015216)
 135 C  ( 0.000000,  0.000000,  0.015216)
 136 C  ( 0.000000,  0.000000, -0.001052)
 137 C  ( 0.000000,  0.000000, -0.000784)
 138 C  ( 0.000000,  0.000000, -0.005696)
 139 C  ( 0.000000,  0.000000, -0.005696)
 140 C  ( 0.000000,  0.000000,  0.003297)
 141 C  ( 0.000000,  0.000000,  0.005154)
 142 C  ( 0.000000,  0.000000,  0.000257)
 143 C  ( 0.000000,  0.000000,  0.003297)
 144 C  ( 0.000000,  0.000000,  0.000120)
 145 C  ( 0.000000,  0.000000,  0.000934)
 146 C  ( 0.000000,  0.000000, -0.000035)
 147 C  ( 0.000000,  0.000000, -0.000035)
 148 C  ( 0.000000,  0.000000,  0.000057)
 149 C  ( 0.000000,  0.000000,  0.000136)
 150 C  ( 0.000000,  0.000000,  0.000913)
 151 C  ( 0.000000,  0.000000,  0.000057)
 152 C  ( 0.000000,  0.000000,  0.002400)
 153 C  ( 0.000000,  0.000000, -0.000130)
 154 C  ( 0.000000,  0.000000, -0.000100)
 155 C  ( 0.000000,  0.000000, -0.000265)
 156 C  ( 0.000000,  0.000000,  0.000134)
 157 C  ( 0.000000,  0.000000,  0.000110)
 158 C  ( 0.000000,  0.000000,  0.001161)
 159 C  ( 0.000000,  0.000000,  0.000843)
 160 C  ( 0.000000,  0.000000, -0.000598)
 161 C  ( 0.000000,  0.000000, -0.000123)
 162 C  ( 0.000000,  0.000000, -0.000123)
 163 C  ( 0.000000,  0.000000, -0.000069)
 164 C  ( 0.000000,  0.000000,  0.000001)
 165 C  ( 0.000000,  0.000000,  0.000594)
 166 C  ( 0.000000,  0.000000,  0.000053)
 167 C  ( 0.000000,  0.000000,  0.000053)
 168 C  ( 0.000000,  0.000000,  0.002400)
 169 C  ( 0.000000,  0.000000, -0.000130)
 170 C  ( 0.000000,  0.000000, -0.000265)
 171 C  ( 0.000000,  0.000000, -0.000100)
 172 C  ( 0.000000,  0.000000,  0.000843)
 173 C  ( 0.000000,  0.000000,  0.000110)
 174 C  ( 0.000000,  0.000000,  0.001161)
 175 C  ( 0.000000,  0.000000,  0.000134)
 176 C  ( 0.000000,  0.000000,  0.001199)
 177 C  ( 0.000000,  0.000000, -0.009907)
 178 C  ( 0.000000,  0.000000, -0.001163)
 179 C  ( 0.000000,  0.000000, -0.001163)
 180 C  ( 0.000000,  0.000000,  0.015216)
 181 C  ( 0.000000,  0.000000,  0.014208)
 182 C  ( 0.000000,  0.000000,  0.233427)
 183 C  ( 0.000000,  0.000000,  0.015216)
 184 C  ( 0.000000,  0.000000, -0.001052)
 185 C  ( 0.000000,  0.000000, -0.005696)
 186 C  ( 0.000000,  0.000000, -0.005696)
 187 C  ( 0.000000,  0.000000, -0.000784)
 188 C  ( 0.000000,  0.000000,  0.000257)
 189 C  ( 0.000000,  0.000000,  0.005154)
 190 C  ( 0.000000,  0.000000,  0.003297)
 191 C  ( 0.000000,  0.000000,  0.003297)
 192 C  ( 0.000000,  0.000000, -0.000598)
 193 C  ( 0.000000,  0.000000, -0.000123)
 194 C  ( 0.000000,  0.000000, -0.000069)
 195 C  ( 0.000000,  0.000000, -0.000123)
 196 C  ( 0.000000,  0.000000,  0.000053)
 197 C  ( 0.000000,  0.000000,  0.000594)
 198 C  ( 0.000000,  0.000000,  0.000053)
 199 C  ( 0.000000,  0.000000,  0.000001)
 200 C  ( 0.000000,  0.000000, -0.001052)
 201 C  ( 0.000000,  0.000000, -0.005696)
 202 C  ( 0.000000,  0.000000, -0.000784)
 203 C  ( 0.000000,  0.000000, -0.005696)
 204 C  ( 0.000000,  0.000000,  0.003297)
 205 C  ( 0.000000,  0.000000,  0.005154)
 206 C  ( 0.000000,  0.000000,  0.003297)
 207 C  ( 0.000000,  0.000000,  0.000257)
 208 C  ( 0.000000,  0.000000,  0.000497)
 209 C  ( 0.000000,  0.000000,  0.000497)
 210 C  ( 0.000000,  0.000000,  0.000497)
 211 C  ( 0.000000,  0.000000,  0.000128)
 212 N  ( 0.000000,  0.000000, -0.001093)
 213 C  ( 0.000000,  0.000000,  0.000128)
 214 C  ( 0.000000,  0.000000,  0.000128)

Energy contributions relative to reference atoms: (reference = -221394.138216)

Kinetic:       +1742.221042
Potential:     -1571.801555
External:        +0.000000
XC:            -2330.889497
Entropy (-ST):   +0.000000
Local:           +2.846590
SIC:             +0.000000
--------------------------
Free energy:   -2157.623421
Extrapolated:  -2157.623421

HYB_GGA_XC_HSE06 + 0.25 * EXX(omega = 0.11 bohr^-1)
Short-range Coulomb: erfc(omega*r)/r (omega = 0.11 bohr^-1)
Spin contamination: 0.178999 electrons
                   Up                     Down
 Band  Eigenvalues  Occupancy  Eigenvalues  Occupancy
    0    -12.12506    1.00000    -12.11878    1.00000
    1    -11.22203    1.00000    -11.21844    1.00000
    2    -11.02088    1.00000    -11.01808    1.00000
    3    -11.02088    1.00000    -11.01808    1.00000
    4    -10.97533    1.00000    -10.96671    1.00000
    5    -10.97533    1.00000    -10.96671    1.00000
    6    -10.88535    1.00000    -10.87058    1.00000
    7    -10.30122    1.00000    -10.29733    1.00000
    8     -9.92488    1.00000     -9.92253    1.00000
    9     -9.92488    1.00000     -9.92253    1.00000
   10     -9.91575    1.00000     -9.91347    1.00000
   11     -9.91575    1.00000     -9.91347    1.00000
   12     -9.90182    1.00000     -9.89672    1.00000
   13     -9.87613    1.00000     -9.86844    1.00000
   14     -9.87613    1.00000     -9.86844    1.00000
   15     -9.86427    1.00000     -9.86068    1.00000
   16     -9.81812    1.00000     -9.79721    1.00000
   17     -9.81812    1.00000     -9.79721    1.00000
   18     -9.63172    1.00000     -9.60207    1.00000
   19     -9.08136    1.00000     -9.07577    1.00000
   20     -8.80334    1.00000     -8.79776    1.00000
   21     -8.79867    1.00000     -8.79092    1.00000
   22     -8.79867    1.00000     -8.79092    1.00000
   23     -8.77418    1.00000     -8.76682    1.00000
   24     -8.77166    1.00000     -8.75201    1.00000
   25     -8.77166    1.00000     -8.75201    1.00000
   26     -8.59901    1.00000     -8.56762    1.00000
   27     -7.92371    1.00000     -7.90859    1.00000
   28     -7.71290    1.00000     -7.70648    1.00000
   29     -7.71290    1.00000     -7.70648    1.00000
   30     -7.68972    1.00000     -7.67694    1.00000
   31     -7.68972    1.00000     -7.67694    1.00000
   32     -7.62651    1.00000     -7.61618    1.00000
   33     -7.27288    1.00000     -7.25655    1.00000
   34     -6.73461    1.00000     -6.73051    1.00000
   35     -6.73461    1.00000     -6.73051    1.00000
   36     -6.72591    1.00000     -6.72438    1.00000
   37     -6.72591    1.00000     -6.72303    1.00000
   38     -6.72519    1.00000     -6.72303    1.00000
   39     -6.71052    1.00000     -6.70698    1.00000
   40     -6.70945    1.00000     -6.70482    1.00000
   41     -6.70945    1.00000     -6.70482    1.00000
   42     -6.69702    1.00000     -6.69557    1.00000
   43     -6.68972    1.00000     -6.68695    1.00000
   44     -6.68972    1.00000     -6.68695    1.00000
   45     -6.68335    1.00000     -6.67878    1.00000
   46     -6.68335    1.00000     -6.67878    1.00000
   47     -6.68036    1.00000     -6.67772    1.00000
   48     -6.65497    1.00000     -6.64053    1.00000
   49     -6.65497    1.00000     -6.64053    1.00000
   50     -6.64368    1.00000     -6.63013    1.00000
   51     -6.63856    1.00000     -6.62573    1.00000
   52     -6.63856    1.00000     -6.62573    1.00000
   53     -6.61320    1.00000     -6.60986    1.00000
   54     -6.54862    1.00000     -6.51335    1.00000
   55     -6.54862    1.00000     -6.51335    1.00000
   56     -6.35465    1.00000     -6.33734    1.00000
   57     -6.13812    1.00000     -6.13360    1.00000
   58     -5.89311    1.00000     -5.89099    1.00000
   59     -5.89311    1.00000     -5.89099    1.00000
   60     -5.86142    1.00000     -5.85881    1.00000
   61     -5.86087    1.00000     -5.85560    1.00000
   62     -5.86087    1.00000     -5.85560    1.00000
   63     -5.84613    1.00000     -5.84342    1.00000
   64     -5.84063    1.00000     -5.83605    1.00000
   65     -5.84063    1.00000     -5.83605    1.00000
   66     -5.83816    1.00000     -5.82781    1.00000
   67     -5.82902    1.00000     -5.82142    1.00000
   68     -5.82902    1.00000     -5.82142    1.00000
   69     -5.80858    1.00000     -5.79865    1.00000
   70     -5.80150    1.00000     -5.79573    1.00000
   71     -5.80150    1.00000     -5.79573    1.00000
   72     -5.78126    1.00000     -5.77654    1.00000
   73     -5.78126    1.00000     -5.77654    1.00000
   74     -5.75276    1.00000     -5.73907    1.00000
   75     -5.74664    1.00000     -5.73127    1.00000
   76     -5.74664    1.00000     -5.73127    1.00000
   77     -5.70841    1.00000     -5.69822    1.00000
   78     -5.60005    1.00000     -5.50761    1.00000
   79     -5.60005    1.00000     -5.50761    1.00000
   80     -4.85750    1.00000     -4.77241    1.00000
   81     -4.19790    1.00000     -4.18717    1.00000
   82     -4.01587    1.00000     -4.01093    1.00000
   83     -4.01587    1.00000     -4.01093    1.00000
   84     -3.97900    1.00000     -3.96725    1.00000
   85     -3.97900    1.00000     -3.96725    1.00000
   86     -3.96930    1.00000     -3.96437    1.00000
   87     -3.96569    1.00000     -3.95847    1.00000
   88     -3.96569    1.00000     -3.95847    1.00000
   89     -3.95324    1.00000     -3.94606    1.00000
   90     -3.91031    1.00000     -3.86488    1.00000
   91     -3.91031    1.00000     -3.86488    1.00000
   92     -3.52303    1.00000     -3.43947    1.00000
   93     -2.62897    1.00000     -2.61197    1.00000
   94     -2.56797    1.00000     -2.56379    1.00000
   95     -2.56797    1.00000     -2.56379    1.00000
   96     -2.54493    1.00000     -2.53507    1.00000
   97     -2.54493    1.00000     -2.53507    1.00000
   98     -2.50243    1.00000     -2.49367    1.00000
   99     -2.26337    1.00000     -2.23518    1.00000
  100     -2.06173    1.00000     -2.05845    1.00000
  101     -2.06173    1.00000     -2.05845    1.00000
  102     -2.02466    1.00000     -2.02449    1.00000
  103     -2.01686    1.00000     -2.01497    1.00000
  104     -2.01686    1.00000     -2.01497    1.00000
  105     -2.00675    1.00000     -2.00349    1.00000
  106     -2.00675    1.00000     -2.00349    1.00000
  107     -2.00481    1.00000     -2.00256    1.00000
  108     -2.00478    1.00000     -2.00246    1.00000
  109     -1.98472    1.00000     -1.97826    1.00000
  110     -1.98472    1.00000     -1.97826    1.00000
  111     -1.97594    1.00000     -1.97302    1.00000
  112     -1.97594    1.00000     -1.97302    1.00000
  113     -1.95573    1.00000     -1.94630    1.00000
  114     -1.92025    1.00000     -1.90497    1.00000
  115     -1.90740    1.00000     -1.89525    1.00000
  116     -1.90740    1.00000     -1.89525    1.00000
  117     -1.87350    1.00000     -1.86676    1.00000
  118     -1.86854    1.00000     -1.85925    1.00000
  119     -1.86854    1.00000     -1.85925    1.00000
  120     -1.84403    1.00000     -1.80698    1.00000
  121     -1.84403    1.00000     -1.80698    1.00000
  122     -1.76641    1.00000     -1.76329    1.00000
  123     -1.73731    1.00000     -1.73377    1.00000
  124     -1.73731    1.00000     -1.73377    1.00000
  125     -1.73275    1.00000     -1.72362    1.00000
  126     -1.71087    1.00000     -1.70719    1.00000
  127     -1.70760    1.00000     -1.70328    1.00000
  128     -1.70760    1.00000     -1.70328    1.00000
  129     -1.70114    1.00000     -1.69817    1.00000
  130     -1.70023    1.00000     -1.69342    1.00000
  131     -1.70023    1.00000     -1.69342    1.00000
  132     -1.69030    1.00000     -1.67694    1.00000
  133     -1.67427    1.00000     -1.66864    1.00000
  134     -1.67427    1.00000     -1.66864    1.00000
  135     -1.65221    1.00000     -1.64413    1.00000
  136     -1.65221    1.00000     -1.64413    1.00000
  137     -1.64637    1.00000     -1.63843    1.00000
  138     -1.64041    1.00000     -1.63088    1.00000
  139     -1.64041    1.00000     -1.63088    1.00000
  140     -1.63774    1.00000     -1.61444    1.00000
  141     -1.63774    1.00000     -1.61444    1.00000
  142     -1.63242    1.00000     -1.58714    1.00000
  143     -1.38993    1.00000     -1.37099    1.00000
  144     -1.28448    1.00000     -1.21036    1.00000
  145     -1.28448    1.00000     -1.21036    1.00000
  146     -0.86242    1.00000     -0.83126    1.00000
  147     -0.57660    1.00000     -0.56335    1.00000
  148     -0.57038    1.00000     -0.56335    1.00000
  149     -0.57038    1.00000     -0.55379    1.00000
  150     -0.52258    1.00000     -0.51972    1.00000
  151     -0.52017    1.00000     -0.51545    1.00000
  152     -0.52017    1.00000     -0.51545    1.00000
  153     -0.51287    1.00000     -0.50062    1.00000
  154     -0.49148    1.00000     -0.48431    1.00000
  155     -0.49148    1.00000     -0.48431    1.00000
  156     -0.36487    1.00000     -0.27541    1.00000
  157     -0.36487    1.00000     -0.27541    1.00000
  158      0.69238    1.00000      0.80190    1.00000
  159      1.17308    1.00000      1.18759    1.00000
  160      1.17936    1.00000      1.18759    1.00000
  161      1.17936    1.00000      1.18942    1.00000
  162      1.24524    1.00000      1.25488    1.00000
  163      1.25984    1.00000      1.26409    1.00000
  164      1.26973    1.00000      1.27591    1.00000
  165      1.26973    1.00000      1.27591    1.00000
  166      1.27290    1.00000      1.27749    1.00000
  167      1.27295    1.00000      1.27749    1.00000
  168      1.27295    1.00000      1.28640    1.00000
  169      1.28978    1.00000      1.29278    1.00000
  170      1.29719    1.00000      1.30021    1.00000
  171      1.29947    1.00000      1.30365    1.00000
  172      1.29947    1.00000      1.30365    1.00000
  173      1.32105    1.00000      1.33363    1.00000
  174      1.32105    1.00000      1.33363    1.00000
  175      1.43695    1.00000      1.45585    1.00000
  176      1.44527    1.00000      1.46922    1.00000
  177      1.44527    1.00000      1.46922    1.00000
  178      1.45832    1.00000      1.48130    1.00000
  179      1.82845    1.00000      1.83707    1.00000
  180      1.82845    1.00000      1.83707    1.00000
  181      1.85049    1.00000      1.87850    1.00000
  182      1.93027    1.00000      1.93078    1.00000
  183      1.93585    1.00000      1.93938    1.00000
  184      1.93680    1.00000      1.93938    1.00000
  185      1.93680    1.00000      1.94057    1.00000
  186      1.94006    1.00000      1.94819    1.00000
  187      1.94006    1.00000      1.94819    1.00000
  188      1.95149    1.00000      1.95630    1.00000
  189      1.95149    1.00000      1.95630    1.00000
  190      1.95291    1.00000      1.95671    1.00000
  191      1.96314    1.00000      1.97106    1.00000
  192      1.96402    1.00000      1.97106    1.00000
  193      1.96402    1.00000      1.97979    1.00000
  194      1.97407    1.00000      1.98235    1.00000
  195      1.97407    1.00000      1.98235    1.00000
  196      1.99154    1.00000      2.00738    1.00000
  197      1.99766    1.00000      2.01414    1.00000
  198      1.99766    1.00000      2.01414    1.00000
  199      2.00228    1.00000      2.01559    1.00000
  200      2.21171    1.00000      2.30317    1.00000
  201      2.21171    1.00000      2.30317    1.00000
  202      2.87897    1.00000      2.89469    1.00000
  203      2.88876    1.00000      2.89469    1.00000
  204      2.88876    1.00000      2.90638    1.00000
  205      2.95745    1.00000      2.96038    1.00000
  206      2.95902    1.00000      2.96038    1.00000
  207      2.95902    1.00000      2.96137    1.00000
  208      2.96308    1.00000      2.96455    1.00000
  209      2.96984    1.00000      2.97288    1.00000
  210      2.96984    1.00000      2.97288    1.00000
  211      2.98175    1.00000      2.98660    1.00000
  212      2.98175    1.00000      2.98660    1.00000
  213      2.98967    1.00000      2.99291    1.00000
  214      3.00173    1.00000      3.00562    1.00000
  215      3.00173    1.00000      3.00562    1.00000
  216      3.05755    1.00000      3.06693    1.00000
  217      3.05755    1.00000      3.06693    1.00000
  218      3.06154    1.00000      3.07282    1.00000
  219      3.07067    1.00000      3.08167    1.00000
  220      3.07888    1.00000      3.08871    1.00000
  221      3.11452    1.00000      3.13233    1.00000
  222      3.11452    1.00000      3.13233    1.00000
  223      3.17782    1.00000      3.18143    1.00000
  224      3.20204    1.00000      3.21655    1.00000
  225      3.20204    1.00000      3.21655    1.00000
  226      3.23774    1.00000      3.29254    1.00000
  227      3.43150    1.00000      3.43972    1.00000
  228      3.43150    1.00000      3.43972    1.00000
  229      3.49058    1.00000      3.50592    1.00000
  230      3.53995    1.00000      3.54224    1.00000
  231      3.53995    1.00000      3.54224    1.00000
  232      3.55592    1.00000      3.56178    1.00000
  233      3.55768    1.00000      3.56211    1.00000
  234      3.55768    1.00000      3.56211    1.00000
  235      3.56486    1.00000      3.57024    1.00000
  236      3.56489    1.00000      3.57448    1.00000
  237      3.56489    1.00000      3.57448    1.00000
  238      3.57111    1.00000      3.58055    1.00000
  239      3.58318    1.00000      3.59465    1.00000
  240      3.58452    1.00000      3.59566    1.00000
  241      3.58992    1.00000      3.59566    1.00000
  242      3.58992    1.00000      3.59722    1.00000
  243      3.59975    1.00000      3.61219    1.00000
  244      3.59976    1.00000      3.61219    1.00000
  245      3.59976    1.00000      3.62919    1.00000
  246      3.61858    1.00000      3.62973    1.00000
  247      3.61858    1.00000      3.63381    1.00000
  248      3.62319    1.00000      3.63381    1.00000
  249      3.64174    1.00000      3.65240    1.00000
  250      3.64174    1.00000      3.65240    1.00000
  251      3.66527    1.00000      3.69945    1.00000
  252      3.66527    1.00000      3.69945    1.00000
  253      4.00836    1.00000      4.04126    1.00000
  254      4.04969    1.00000      4.12308    1.00000
  255      4.04969    1.00000      4.12308    1.00000
  256      4.61768    1.00000      4.62663    1.00000
  257      4.61768    1.00000      4.62663    1.00000
  258      4.67914    1.00000      4.69182    1.00000
  259      4.69653    1.00000      4.70663    1.00000
  260      4.71206    1.00000      4.73677    1.00000
  261      4.71206    1.00000      4.73677    1.00000
  262      4.78549    1.00000      4.90645    1.00000
  263      5.20154    1.00000      5.22045    1.00000
  264      5.20154    1.00000      5.22045    1.00000
  265      5.28505    1.00000      5.29448    1.00000
  266      5.29095    1.00000      5.29448    1.00000
  267      5.29095    1.00000      5.29599    1.00000
  268      5.30647    1.00000      5.31285    1.00000
  269      5.30738    1.00000      5.31769    1.00000
  270      5.30738    1.00000      5.31769    1.00000
  271      5.33227    1.00000      5.35302    1.00000
  272      5.39459    1.00000      5.41877    1.00000
  273      5.39459    1.00000      5.41877    1.00000
  274      5.59942    1.00000      5.60540    1.00000
  275      5.59942    1.00000      5.60540    1.00000
  276      5.70123    1.00000      5.72771    1.00000
  277      5.74106    1.00000      5.75705    1.00000
  278      5.75216    1.00000      5.75705    1.00000
  279      5.75216    1.00000      5.75867    1.00000
  280      5.75222    1.00000      5.77388    1.00000
  281      5.75775    1.00000      5.77388    1.00000
  282      5.75775    1.00000      5.77660    1.00000
  283      5.78695    1.00000      5.80172    1.00000
  284      5.81958    1.00000      5.83424    1.00000
  285      5.81958    1.00000      5.83424    1.00000
  286      5.82658    1.00000      5.84683    1.00000
  287      5.98709    1.00000      5.99946    1.00000
  288      5.98709    1.00000      5.99946    1.00000
  289      6.01306    1.00000      6.01637    1.00000
  290      6.04047    1.00000      6.04383    1.00000
  291      6.04504    1.00000      6.04768    1.00000
  292      6.04504    1.00000      6.04768    1.00000
  293      6.06125    1.00000      6.06453    1.00000
  294      6.06521    1.00000      6.06758    1.00000
  295      6.06521    1.00000      6.06758    1.00000
  296      6.06570    1.00000      6.06953    1.00000
  297      6.06570    1.00000      6.06953    1.00000
  298      6.07536    1.00000      6.07884    1.00000
  299      6.07581    1.00000      6.08195    1.00000
  300      6.08310    1.00000      6.08671    1.00000
  301      6.08310    1.00000      6.08671    1.00000
  302      6.11411    1.00000      6.12173    1.00000
  303      6.11411    1.00000      6.12173    1.00000
  304      6.12771    1.00000      6.13879    1.00000
  305      6.12771    1.00000      6.14341    1.00000
  306      6.13169    1.00000      6.14341    1.00000
  307      6.14092    1.00000      6.15178    1.00000
  308      6.14092    1.00000      6.15178    1.00000
  309      6.14576    1.00000      6.15219    1.00000
  310      6.21127    1.00000      6.21972    1.00000
  311      6.21127    1.00000      6.21972    1.00000
  312      6.23909    1.00000      6.24910    1.00000
  313      6.27842    1.00000      6.27924    1.00000
  314      6.28449    1.00000      6.28732    1.00000
  315      6.28461    1.00000      6.28732    1.00000
  316      6.28461    1.00000      6.28777    1.00000
  317      6.29148    1.00000      6.29477    1.00000
  318      6.29148    1.00000      6.29477    1.00000
  319      6.29231    1.00000      6.30241    1.00000
  320      6.29937    1.00000      6.30241    1.00000
  321      6.29937    1.00000      6.30451    1.00000
  322      6.30199    1.00000      6.30806    1.00000
  323      6.30236    1.00000      6.30878    1.00000
  324      6.31362    1.00000      6.31887    1.00000
  325      6.31362    1.00000      6.31887    1.00000
  326      6.32423    1.00000      6.33040    1.00000
  327      6.32646    1.00000      6.33040    1.00000
  328      6.32646    1.00000      6.33487    1.00000
  329      6.33238    1.00000      6.33745    1.00000
  330      6.33238    1.00000      6.33745    1.00000
  331      6.33451    1.00000      6.34035    1.00000
  332      6.34652    1.00000      6.35445    1.00000
  333      6.34652    1.00000      6.35445    1.00000
  334      6.35431    1.00000      6.36566    1.00000
  335      6.35431    1.00000      6.36566    1.00000
  336      6.35724    1.00000      6.37044    1.00000
  337      6.35859    1.00000      6.37044    1.00000
  338      6.35859    1.00000      6.37620    1.00000
  339      6.37014    1.00000      6.37908    1.00000
  340      6.38520    1.00000      6.39629    1.00000
  341      6.38825    1.00000      6.40266    1.00000
  342      6.38825    1.00000      6.40266    1.00000
  343      6.40852    1.00000      6.41725    1.00000
  344      6.40852    1.00000      6.41725    1.00000
  345      6.42698    1.00000      6.44695    1.00000
  346      6.43289    1.00000      6.44695    1.00000
  347      6.43289    1.00000      6.46254    1.00000
  348      6.45027    1.00000      6.47479    1.00000
  349      6.48307    1.00000      6.49462    1.00000
  350      6.48307    1.00000      6.51754    1.00000
  351      6.48582    1.00000      6.51997    1.00000
  352      6.49778    1.00000      6.51997    1.00000
  353      6.59176    1.00000      6.64929    1.00000
  354      6.59176    1.00000      6.64929    1.00000
  355      6.90400    1.00000      6.92098    1.00000
  356      6.91224    1.00000      6.94396    1.00000
  357      6.91224    1.00000      6.94396    1.00000
  358      7.10844    1.00000      7.11606    1.00000
  359      7.10844    1.00000      7.11606    1.00000
  360      7.17687    1.00000      7.18014    1.00000
  361      7.17687    1.00000      7.18014    1.00000
  362      7.17849    1.00000      7.18249    1.00000
  363      7.18668    1.00000      7.18919    1.00000
  364      7.21585    1.00000      7.22270    1.00000
  365      7.21711    1.00000      7.22270    1.00000
  366      7.21711    1.00000      7.22661    1.00000
  367      7.21779    1.00000      7.22753    1.00000
  368      7.23871    1.00000      7.24749    1.00000
  369      7.23871    1.00000      7.24749    1.00000
  370      7.24702    1.00000      7.25971    1.00000
  371      7.24702    1.00000      7.26704    1.00000
  372      7.25057    1.00000      7.26704    1.00000
  373      7.25694    1.00000      7.28194    1.00000
  374      7.25694    1.00000      7.28194    1.00000
  375      7.27920    1.00000      7.28681    1.00000
  376      7.31522    1.00000      7.35376    1.00000
  377      7.31522    1.00000      7.35376    1.00000
  378      7.38136    1.00000      7.43340    1.00000
  379      8.08986    1.00000      8.10950    1.00000
  380      8.24137    1.00000      8.36229    1.00000
  381      8.24137    1.00000      8.36229    1.00000
  382      8.51517    1.00000      8.74401    1.00000
  383      8.72186    1.00000      8.74401    1.00000
  384      8.72186    1.00000      8.76344    1.00000
  385      8.78476    1.00000      8.78767    1.00000
  386      8.78476    1.00000      8.78767    1.00000
  387      8.78797    1.00000      8.79584    1.00000
  388      8.80489    1.00000      8.81039    1.00000
  389      8.80529    1.00000      8.82805    1.00000
  390      8.80800    1.00000      8.82805    1.00000
  391      8.80800    1.00000      8.84032    1.00000
  392      8.87715    1.00000      8.88465    1.00000
  393      8.87715    1.00000      8.88465    1.00000
  394      8.88828    1.00000      8.89814    1.00000
  395      8.97034    1.00000      8.97600    1.00000
  396      8.97034    1.00000      8.97600    1.00000
  397      9.02839    1.00000      9.03792    1.00000
  398      9.03595    1.00000      9.04060    1.00000
  399      9.03595    1.00000      9.04060    1.00000
  400      9.04208    1.00000      9.05035    1.00000
  401      9.04208    1.00000      9.05035    1.00000
  402      9.04871    1.00000      9.06500    1.00000
  403      9.04871    1.00000      9.06571    1.00000
  404      9.05758    1.00000      9.06571    1.00000
  405      9.07416    1.00000      9.09408    1.00000
  406      9.07416    1.00000      9.09408    1.00000
  407      9.10289    1.00000      9.11855    1.00000
  408      9.10524    1.00000      9.12558    1.00000
  409      9.10524    1.00000      9.12558    1.00000
  410      9.11013    1.00000      9.13955    1.00000
  411      9.13773    1.00000      9.14818    1.00000
  412      9.13773    1.00000      9.14818    1.00000
  413      9.74636    1.00000      9.76218    1.00000
  414      9.78485    1.00000      9.83586    1.00000
  415      9.78485    1.00000      9.83586    1.00000
  416      9.92227    1.00000     10.04953    1.00000
  417     10.03953    1.00000     10.04953    1.00000
  418     10.03953    1.00000     10.05806    1.00000
  419     10.05572    1.00000     10.08591    1.00000
  420     10.07911    1.00000     10.08591    1.00000
  421     10.07918    1.00000     10.08624    1.00000
  422     10.07918    1.00000     10.12473    1.00000
  423     10.10576    1.00000     10.16739    1.00000
  424     10.14289    1.00000     10.16739    1.00000
  425     10.14289    1.00000     10.42013    1.00000
  426     11.26223    1.00000     11.49206    1.00000
  427     11.42187    1.00000     11.49210    1.00000
  428     11.42187    1.00000     11.49210    1.00000
  429     12.14522    1.00000     13.11419    1.00000
  430     13.31392    1.00000     16.03893    0.00000
  431     13.31392    1.00000     16.03893    0.00000
  432     17.05414    0.00000     17.05824    0.00000
  433     17.05414    0.00000     17.05824    0.00000
  434     17.07157    0.00000     17.08323    0.00000
  435     17.10661    0.00000     17.12245    0.00000
  436     17.10661    0.00000     17.12245    0.00000
  437     17.13104    0.00000     17.14209    0.00000
  438     17.63246    0.00000     17.63800    0.00000
  439     17.69665    0.00000     17.70554    0.00000
  440     17.69665    0.00000     17.70554    0.00000
  441     17.71283    0.00000     17.72006    0.00000
  442     17.71283    0.00000     17.72006    0.00000
  443     17.78834    0.00000     17.80133    0.00000

Fermi level: 15.18400

Gap: 2.725 eV
Transition (v -> c):
  (s=0, k=0, n=431, [[0.00, 0.00, 0.00]]) -> (s=1, k=0, n=430, [[0.00, 0.00, 0.00]])
No difference between direct/indirect transitions
System changes: positions 

Initializing position-dependent things.

Density initialized from wave functions
        .--------C----------------.  
       /|           C             |  
      / | C       C  C C   C      |  
     / C|    C  C    C  C     C   |  
    /  C|C    C C C    C CCC   C  |  
   /    C C C    C C      N CC    |  
  /  C C| CCCCCC  C C C    C CC   |  
 *    C C   CCCCC    C C C    C C |  
 |C    CCC C  CCCCC C  CCCCC   C C|  
 | C C  CCC C    CCC C C  CCC     C  
 |  C C | CCCC C  CCCCC C  CC C   |  
 C   CC C C C C C    CCC C   CC   |  
 |    CCCC C C CCCCC C CCCC C  C  |  
 |     C.CC-C-C-C-CC-C-C-C-C-C----.  
 |  C C/C CCCC   C C CC C C CCC  /   
 |   CC     C CC    C C      C  /    
 |   /C C      CCCC    C C     /     
 |  /    C C      C C      CC /      
 | /C       C        C C     /       
 |/                     C   /        
 C----------------C--------*         

Positions:
   0 C      0.002372    0.002372    0.002372    ( 0.0000,  0.0000,  0.0000)
   1 C     -0.000177    1.774292    1.774292    ( 0.0000,  0.0000,  0.0000)
   2 C      1.774292    1.774292   -0.000177    ( 0.0000,  0.0000,  0.0000)
   3 C      1.774292   -0.000177    1.774292    ( 0.0000,  0.0000,  0.0000)
   4 C      2.660291    0.886016    2.660291    ( 0.0000,  0.0000,  0.0000)
   5 C      0.887932    0.887932    0.887932    ( 0.0000,  0.0000,  0.0000)
   6 C      0.886016    2.660291    2.660291    ( 0.0000,  0.0000,  0.0000)
   7 C      2.660291    2.660291    0.886016    ( 0.0000,  0.0000,  0.0000)
   8 C     -0.001720   -0.001720    3.550221    ( 0.0000,  0.0000,  0.0000)
   9 C     -0.001514    1.772014    5.320396    ( 0.0000,  0.0000,  0.0000)
  10 C      1.772639    1.772639    3.546938    ( 0.0000,  0.0000,  0.0000)
  11 C      1.772014   -0.001514    5.320396    ( 0.0000,  0.0000,  0.0000)
  12 C      2.658540    0.886445    6.206956    ( 0.0000,  0.0000,  0.0000)
  13 C      0.885452    0.885452    4.434520    ( 0.0000,  0.0000,  0.0000)
  14 C      0.886445    2.658540    6.206956    ( 0.0000,  0.0000,  0.0000)
  15 C      2.659334    2.659334    4.433008    ( 0.0000,  0.0000,  0.0000)
  16 C      0.005597    0.005597    7.096195    ( 0.0000,  0.0000,  0.0000)
  17 C      0.000909    1.776657    8.866874    ( 0.0000,  0.0000,  0.0000)
  18 C      1.773012    1.773012    7.093113    ( 0.0000,  0.0000,  0.0000)
  19 C      1.776657    0.000909    8.866874    ( 0.0000,  0.0000,  0.0000)
  20 C      2.662759    0.886233    9.752379    ( 0.0000,  0.0000,  0.0000)
  21 C      0.889792    0.889792    7.980502    ( 0.0000,  0.0000,  0.0000)
  22 C      0.886233    2.662759    9.752379    ( 0.0000,  0.0000,  0.0000)
  23 C      2.657417    2.657417    7.978135    ( 0.0000,  0.0000,  0.0000)
  24 C     -0.001720    3.550221   -0.001720    ( 0.0000,  0.0000,  0.0000)
  25 C     -0.001514    5.320396    1.772014    ( 0.0000,  0.0000,  0.0000)
  26 C      1.772014    5.320396   -0.001514    ( 0.0000,  0.0000,  0.0000)
  27 C      1.772639    3.546938    1.772639    ( 0.0000,  0.0000,  0.0000)
  28 C      2.659334    4.433008    2.659334    ( 0.0000,  0.0000,  0.0000)
  29 C      0.885452    4.434520    0.885452    ( 0.0000,  0.0000,  0.0000)
  30 C      0.886445    6.206956    2.658540    ( 0.0000,  0.0000,  0.0000)
  31 C      2.658540    6.206956    0.886445    ( 0.0000,  0.0000,  0.0000)
  32 C     -0.001669    3.546694    3.546694    ( 0.0000,  0.0000,  0.0000)
  33 C     -0.002583    5.319921    5.319921    ( 0.0000,  0.0000,  0.0000)
  34 C      1.771768    5.319199    3.545991    ( 0.0000,  0.0000,  0.0000)
  35 C      1.771768    3.545991    5.319199    ( 0.0000,  0.0000,  0.0000)
  36 C      2.657674    4.432033    6.205470    ( 0.0000,  0.0000,  0.0000)
  37 C      0.884954    4.433087    4.433087    ( 0.0000,  0.0000,  0.0000)
  38 C      0.883451    6.206763    6.206763    ( 0.0000,  0.0000,  0.0000)
  39 C      2.657674    6.205470    4.432033    ( 0.0000,  0.0000,  0.0000)
  40 C      0.000014    3.545859    7.091609    ( 0.0000,  0.0000,  0.0000)
  41 C     -0.010700    5.330071    8.863338    ( 0.0000,  0.0000,  0.0000)
  42 C      1.771117    5.320902    7.092299    ( 0.0000,  0.0000,  0.0000)
  43 C      1.770943    3.548938    8.865634    ( 0.0000,  0.0000,  0.0000)
  44 C      2.658959    4.434080    9.751333    ( 0.0000,  0.0000,  0.0000)
  45 C      0.881582    4.437692    7.977967    ( 0.0000,  0.0000,  0.0000)
  46 C      0.885071    6.209040    9.751980    ( 0.0000,  0.0000,  0.0000)
  47 C      2.660173    6.206484    7.978018    ( 0.0000,  0.0000,  0.0000)
  48 C      0.005597    7.096195    0.005597    ( 0.0000,  0.0000,  0.0000)
  49 C      0.000909    8.866874    1.776657    ( 0.0000,  0.0000,  0.0000)
  50 C      1.776657    8.866874    0.000909    ( 0.0000,  0.0000,  0.0000)
  51 C      1.773012    7.093113    1.773012    ( 0.0000,  0.0000,  0.0000)
  52 C      2.657417    7.978135    2.657417    ( 0.0000,  0.0000,  0.0000)
  53 C      0.889792    7.980502    0.889792    ( 0.0000,  0.0000,  0.0000)
  54 C      0.886233    9.752379    2.662759    ( 0.0000,  0.0000,  0.0000)
  55 C      2.662759    9.752379    0.886233    ( 0.0000,  0.0000,  0.0000)
  56 C      0.000014    7.091609    3.545859    ( 0.0000,  0.0000,  0.0000)
  57 C     -0.010700    8.863338    5.330071    ( 0.0000,  0.0000,  0.0000)
  58 C      1.770943    8.865634    3.548938    ( 0.0000,  0.0000,  0.0000)
  59 C      1.771117    7.092299    5.320902    ( 0.0000,  0.0000,  0.0000)
  60 C      2.660173    7.978018    6.206484    ( 0.0000,  0.0000,  0.0000)
  61 C      0.881582    7.977967    4.437692    ( 0.0000,  0.0000,  0.0000)
  62 C      0.885071    9.751980    6.209040    ( 0.0000,  0.0000,  0.0000)
  63 C      2.658959    9.751333    4.434080    ( 0.0000,  0.0000,  0.0000)
  64 C     -0.005349    7.094062    7.094062    ( 0.0000,  0.0000,  0.0000)
  65 C      0.007882    8.871270    8.871270    ( 0.0000,  0.0000,  0.0000)
  66 C      1.773973    8.865184    7.093341    ( 0.0000,  0.0000,  0.0000)
  67 C      1.773973    7.093341    8.865184    ( 0.0000,  0.0000,  0.0000)
  68 C      2.662178    7.979334    9.751729    ( 0.0000,  0.0000,  0.0000)
  69 C      0.887169    7.980595    7.980595    ( 0.0000,  0.0000,  0.0000)
  70 C      0.891775    9.755494    9.755494    ( 0.0000,  0.0000,  0.0000)
  71 C      2.662178    9.751729    7.979334    ( 0.0000,  0.0000,  0.0000)
  72 C      3.550221   -0.001720   -0.001720    ( 0.0000,  0.0000,  0.0000)
  73 C      3.546938    1.772639    1.772639    ( 0.0000,  0.0000,  0.0000)
  74 C      5.320396    1.772014   -0.001514    ( 0.0000,  0.0000,  0.0000)
  75 C      5.320396   -0.001514    1.772014    ( 0.0000,  0.0000,  0.0000)
  76 C      6.206956    0.886445    2.658540    ( 0.0000,  0.0000,  0.0000)
  77 C      4.434520    0.885452    0.885452    ( 0.0000,  0.0000,  0.0000)
  78 C      4.433008    2.659334    2.659334    ( 0.0000,  0.0000,  0.0000)
  79 C      6.206956    2.658540    0.886445    ( 0.0000,  0.0000,  0.0000)
  80 C      3.546694   -0.001669    3.546694    ( 0.0000,  0.0000,  0.0000)
  81 C      3.545991    1.771768    5.319199    ( 0.0000,  0.0000,  0.0000)
  82 C      5.319199    1.771768    3.545991    ( 0.0000,  0.0000,  0.0000)
  83 C      5.319921   -0.002583    5.319921    ( 0.0000,  0.0000,  0.0000)
  84 C      6.206763    0.883451    6.206763    ( 0.0000,  0.0000,  0.0000)
  85 C      4.433087    0.884954    4.433087    ( 0.0000,  0.0000,  0.0000)
  86 C      4.432033    2.657674    6.205470    ( 0.0000,  0.0000,  0.0000)
  87 C      6.205470    2.657674    4.432033    ( 0.0000,  0.0000,  0.0000)
  88 C      3.545859    0.000014    7.091609    ( 0.0000,  0.0000,  0.0000)
  89 C      3.548938    1.770943    8.865634    ( 0.0000,  0.0000,  0.0000)
  90 C      5.320902    1.771117    7.092299    ( 0.0000,  0.0000,  0.0000)
  91 C      5.330071   -0.010700    8.863338    ( 0.0000,  0.0000,  0.0000)
  92 C      6.209040    0.885071    9.751980    ( 0.0000,  0.0000,  0.0000)
  93 C      4.437692    0.881582    7.977967    ( 0.0000,  0.0000,  0.0000)
  94 C      4.434080    2.658959    9.751333    ( 0.0000,  0.0000,  0.0000)
  95 C      6.206484    2.660173    7.978018    ( 0.0000,  0.0000,  0.0000)
  96 C      3.546694    3.546694   -0.001669    ( 0.0000,  0.0000,  0.0000)
  97 C      3.545991    5.319199    1.771768    ( 0.0000,  0.0000,  0.0000)
  98 C      5.319921    5.319921   -0.002583    ( 0.0000,  0.0000,  0.0000)
  99 C      5.319199    3.545991    1.771768    ( 0.0000,  0.0000,  0.0000)
 100 C      6.205470    4.432033    2.657674    ( 0.0000,  0.0000,  0.0000)
 101 C      4.433087    4.433087    0.884954    ( 0.0000,  0.0000,  0.0000)
 102 C      4.432033    6.205470    2.657674    ( 0.0000,  0.0000,  0.0000)
 103 C      6.206763    6.206763    0.883451    ( 0.0000,  0.0000,  0.0000)
 104 C      3.546165    3.546165    3.546165    ( 0.0000,  0.0000,  0.0000)
 105 C      3.546493    5.320207    5.320207    ( 0.0000,  0.0000,  0.0000)
 106 C      5.320207    5.320207    3.546493    ( 0.0000,  0.0000,  0.0000)
 107 C      5.320207    3.546493    5.320207    ( 0.0000,  0.0000,  0.0000)
 108 C      6.204957    4.435216    6.204957    ( 0.0000,  0.0000,  0.0000)
 109 C      4.432681    4.432681    4.432681    ( 0.0000,  0.0000,  0.0000)
 110 C      4.435216    6.204957    6.204957    ( 0.0000,  0.0000,  0.0000)
 111 C      6.204957    6.204957    4.435216    ( 0.0000,  0.0000,  0.0000)
 112 C      3.540875    3.540875    7.092749    ( 0.0000,  0.0000,  0.0000)
 113 C      3.546107    5.318967    8.863917    ( 0.0000,  0.0000,  0.0000)
 114 C      5.319652    5.319652    7.095926    ( 0.0000,  0.0000,  0.0000)
 115 C      5.318967    3.546107    8.863917    ( 0.0000,  0.0000,  0.0000)
 116 C      6.209079    4.430145    9.754367    ( 0.0000,  0.0000,  0.0000)
 117 C      4.423602    4.423602    7.973369    ( 0.0000,  0.0000,  0.0000)
 118 C      4.430145    6.209079    9.754367    ( 0.0000,  0.0000,  0.0000)
 119 C      6.145582    6.145582    8.012744    ( 0.0000,  0.0000,  0.0000)
 120 C      3.545859    7.091609    0.000014    ( 0.0000,  0.0000,  0.0000)
 121 C      3.548938    8.865634    1.770943    ( 0.0000,  0.0000,  0.0000)
 122 C      5.330071    8.863338   -0.010700    ( 0.0000,  0.0000,  0.0000)
 123 C      5.320902    7.092299    1.771117    ( 0.0000,  0.0000,  0.0000)
 124 C      6.206484    7.978018    2.660173    ( 0.0000,  0.0000,  0.0000)
 125 C      4.437692    7.977967    0.881582    ( 0.0000,  0.0000,  0.0000)
 126 C      4.434080    9.751333    2.658959    ( 0.0000,  0.0000,  0.0000)
 127 C      6.209040    9.751980    0.885071    ( 0.0000,  0.0000,  0.0000)
 128 C      3.540875    7.092749    3.540875    ( 0.0000,  0.0000,  0.0000)
 129 C      3.546107    8.863917    5.318967    ( 0.0000,  0.0000,  0.0000)
 130 C      5.318967    8.863917    3.546107    ( 0.0000,  0.0000,  0.0000)
 131 C      5.319652    7.095926    5.319652    ( 0.0000,  0.0000,  0.0000)
 132 C      6.145582    8.012744    6.145582    ( 0.0000,  0.0000,  0.0000)
 133 C      4.423602    7.973369    4.423602    ( 0.0000,  0.0000,  0.0000)
 134 C      4.430145    9.754367    6.209079    ( 0.0000,  0.0000,  0.0000)
 135 C      6.209079    9.754367    4.430145    ( 0.0000,  0.0000,  0.0000)
 136 C      3.550030    7.090855    7.090855    ( 0.0000,  0.0000,  0.0000)
 137 C      3.552115    8.861877    8.861877    ( 0.0000,  0.0000,  0.0000)
 138 C      5.332666    8.847031    7.083222    ( 0.0000,  0.0000,  0.0000)
 139 C      5.332666    7.083222    8.847031    ( 0.0000,  0.0000,  0.0000)
 140 C      6.223423    7.971641    9.734620    ( 0.0000,  0.0000,  0.0000)
 141 C      4.440870    7.974370    7.974370    ( 0.0000,  0.0000,  0.0000)
 142 C      4.438713    9.748724    9.748724    ( 0.0000,  0.0000,  0.0000)
 143 C      6.223423    9.734620    7.971641    ( 0.0000,  0.0000,  0.0000)
 144 C      7.096195    0.005597    0.005597    ( 0.0000,  0.0000,  0.0000)
 145 C      7.093113    1.773012    1.773012    ( 0.0000,  0.0000,  0.0000)
 146 C      8.866874    1.776657    0.000909    ( 0.0000,  0.0000,  0.0000)
 147 C      8.866874    0.000909    1.776657    ( 0.0000,  0.0000,  0.0000)
 148 C      9.752379    0.886233    2.662759    ( 0.0000,  0.0000,  0.0000)
 149 C      7.980502    0.889792    0.889792    ( 0.0000,  0.0000,  0.0000)
 150 C      7.978135    2.657417    2.657417    ( 0.0000,  0.0000,  0.0000)
 151 C      9.752379    2.662759    0.886233    ( 0.0000,  0.0000,  0.0000)
 152 C      7.091609    0.000014    3.545859    ( 0.0000,  0.0000,  0.0000)
 153 C      7.092299    1.771117    5.320902    ( 0.0000,  0.0000,  0.0000)
 154 C      8.865634    1.770943    3.548938    ( 0.0000,  0.0000,  0.0000)
 155 C      8.863338   -0.010700    5.330071    ( 0.0000,  0.0000,  0.0000)
 156 C      9.751980    0.885071    6.209040    ( 0.0000,  0.0000,  0.0000)
 157 C      7.977967    0.881582    4.437692    ( 0.0000,  0.0000,  0.0000)
 158 C      7.978018    2.660173    6.206484    ( 0.0000,  0.0000,  0.0000)
 159 C      9.751333    2.658959    4.434080    ( 0.0000,  0.0000,  0.0000)
 160 C      7.094062   -0.005349    7.094062    ( 0.0000,  0.0000,  0.0000)
 161 C      7.093341    1.773973    8.865184    ( 0.0000,  0.0000,  0.0000)
 162 C      8.865184    1.773973    7.093341    ( 0.0000,  0.0000,  0.0000)
 163 C      8.871270    0.007882    8.871270    ( 0.0000,  0.0000,  0.0000)
 164 C      9.755494    0.891775    9.755494    ( 0.0000,  0.0000,  0.0000)
 165 C      7.980595    0.887169    7.980595    ( 0.0000,  0.0000,  0.0000)
 166 C      7.979334    2.662178    9.751729    ( 0.0000,  0.0000,  0.0000)
 167 C      9.751729    2.662178    7.979334    ( 0.0000,  0.0000,  0.0000)
 168 C      7.091609    3.545859    0.000014    ( 0.0000,  0.0000,  0.0000)
 169 C      7.092299    5.320902    1.771117    ( 0.0000,  0.0000,  0.0000)
 170 C      8.863338    5.330071   -0.010700    ( 0.0000,  0.0000,  0.0000)
 171 C      8.865634    3.548938    1.770943    ( 0.0000,  0.0000,  0.0000)
 172 C      9.751333    4.434080    2.658959    ( 0.0000,  0.0000,  0.0000)
 173 C      7.977967    4.437692    0.881582    ( 0.0000,  0.0000,  0.0000)
 174 C      7.978018    6.206484    2.660173    ( 0.0000,  0.0000,  0.0000)
 175 C      9.751980    6.209040    0.885071    ( 0.0000,  0.0000,  0.0000)
 176 C      7.092749    3.540875    3.540875    ( 0.0000,  0.0000,  0.0000)
 177 C      7.095926    5.319652    5.319652    ( 0.0000,  0.0000,  0.0000)
 178 C      8.863917    5.318967    3.546107    ( 0.0000,  0.0000,  0.0000)
 179 C      8.863917    3.546107    5.318967    ( 0.0000,  0.0000,  0.0000)
 180 C      9.754367    4.430145    6.209079    ( 0.0000,  0.0000,  0.0000)
 181 C      7.973369    4.423602    4.423602    ( 0.0000,  0.0000,  0.0000)
 182 C      8.012744    6.145582    6.145582    ( 0.0000,  0.0000,  0.0000)
 183 C      9.754367    6.209079    4.430145    ( 0.0000,  0.0000,  0.0000)
 184 C      7.090855    3.550030    7.090855    ( 0.0000,  0.0000,  0.0000)
 185 C      7.083222    5.332666    8.847031    ( 0.0000,  0.0000,  0.0000)
 186 C      8.847031    5.332666    7.083222    ( 0.0000,  0.0000,  0.0000)
 187 C      8.861877    3.552115    8.861877    ( 0.0000,  0.0000,  0.0000)
 188 C      9.748724    4.438713    9.748724    ( 0.0000,  0.0000,  0.0000)
 189 C      7.974370    4.440870    7.974370    ( 0.0000,  0.0000,  0.0000)
 190 C      7.971641    6.223423    9.734620    ( 0.0000,  0.0000,  0.0000)
 191 C      9.734620    6.223423    7.971641    ( 0.0000,  0.0000,  0.0000)
 192 C      7.094062    7.094062   -0.005349    ( 0.0000,  0.0000,  0.0000)
 193 C      7.093341    8.865184    1.773973    ( 0.0000,  0.0000,  0.0000)
 194 C      8.871270    8.871270    0.007882    ( 0.0000,  0.0000,  0.0000)
 195 C      8.865184    7.093341    1.773973    ( 0.0000,  0.0000,  0.0000)
 196 C      9.751729    7.979334    2.662178    ( 0.0000,  0.0000,  0.0000)
 197 C      7.980595    7.980595    0.887169    ( 0.0000,  0.0000,  0.0000)
 198 C      7.979334    9.751729    2.662178    ( 0.0000,  0.0000,  0.0000)
 199 C      9.755494    9.755494    0.891775    ( 0.0000,  0.0000,  0.0000)
 200 C      7.090855    7.090855    3.550030    ( 0.0000,  0.0000,  0.0000)
 201 C      7.083222    8.847031    5.332666    ( 0.0000,  0.0000,  0.0000)
 202 C      8.861877    8.861877    3.552115    ( 0.0000,  0.0000,  0.0000)
 203 C      8.847031    7.083222    5.332666    ( 0.0000,  0.0000,  0.0000)
 204 C      9.734620    7.971641    6.223423    ( 0.0000,  0.0000,  0.0000)
 205 C      7.974370    7.974370    4.440870    ( 0.0000,  0.0000,  0.0000)
 206 C      7.971641    9.734620    6.223423    ( 0.0000,  0.0000,  0.0000)
 207 C      9.748724    9.748724    4.438713    ( 0.0000,  0.0000,  0.0000)
 208 C      7.136597    8.864770    8.864770    ( 0.0000,  0.0000,  0.0000)
 209 C      8.864770    8.864770    7.136597    ( 0.0000,  0.0000,  0.0000)
 210 C      8.864770    7.136597    8.864770    ( 0.0000,  0.0000,  0.0000)
 211 C      9.766565    7.984371    9.766565    ( 0.0000,  0.0000,  0.0000)
 212 N      8.067138    8.067138    8.067138    ( 0.0000,  0.0000,  2.0000)
 213 C      7.984371    9.766565    9.766565    ( 0.0000,  0.0000,  0.0000)
 214 C      9.766565    9.766565    7.984371    ( 0.0000,  0.0000,  0.0000)

Unit cell:
           periodic     x           y           z      points  spacing
  1. axis:    yes   10.639295    0.000000    0.000000    63     0.1689
  2. axis:    yes    0.000000   10.639295    0.000000    63     0.1689
  3. axis:    yes    0.000000    0.000000   10.639295    63     0.1689

  Lengths:  10.639295  10.639295  10.639295
  Angles:   90.000000  90.000000  90.000000

Effective grid spacing dv^(1/3) = 0.1689

     iter     time        total  log10-change:  magmom
                         energy   eigst   dens
iter:   1 03:52:19 -2157.623428   -8.66c -6.63c   +2.0000
iter:   2 03:59:46 -2157.623424   -9.32c -6.79c   +2.0000
iter:   3 04:07:13 -2157.623423c  -9.20c -6.88c   +2.0000

Occupied states converged after 4 e/g evaluations
Converge unoccupied states:
                                   wfs    
           time        Energy:     error(ev^2):
iter:   1  04:24:23   33.093059     1.0e-04

Unoccupied orbitals converged after 1 iterations

Converged after 3 iterations.

Dipole moment: (0.829638, 0.829638, 0.829638) |e|*Ang

Total magnetic moment: (0.000000, 0.000000, 2.000000)
Local magnetic moments:
   0 C  ( 0.000000,  0.000000,  0.000003)
   1 C  ( 0.000000,  0.000000,  0.000005)
   2 C  ( 0.000000,  0.000000,  0.000005)
   3 C  ( 0.000000,  0.000000,  0.000005)
   4 C  ( 0.000000,  0.000000,  0.000316)
   5 C  ( 0.000000,  0.000000,  0.000086)
   6 C  ( 0.000000,  0.000000,  0.000316)
   7 C  ( 0.000000,  0.000000,  0.000316)
   8 C  ( 0.000000,  0.000000,  0.000050)
   9 C  ( 0.000000,  0.000000, -0.000087)
  10 C  ( 0.000000,  0.000000, -0.000024)
  11 C  ( 0.000000,  0.000000, -0.000087)
  12 C  ( 0.000000,  0.000000,  0.001253)
  13 C  ( 0.000000,  0.000000,  0.000107)
  14 C  ( 0.000000,  0.000000,  0.001253)
  15 C  ( 0.000000,  0.000000,  0.000085)
  16 C  ( 0.000000,  0.000000,  0.000120)
  17 C  ( 0.000000,  0.000000, -0.000035)
  18 C  ( 0.000000,  0.000000,  0.000934)
  19 C  ( 0.000000,  0.000000, -0.000035)
  20 C  ( 0.000000,  0.000000,  0.000057)
  21 C  ( 0.000000,  0.000000,  0.000136)
  22 C  ( 0.000000,  0.000000,  0.000057)
  23 C  ( 0.000000,  0.000000,  0.000913)
  24 C  ( 0.000000,  0.000000,  0.000050)
  25 C  ( 0.000000,  0.000000, -0.000087)
  26 C  ( 0.000000,  0.000000, -0.000087)
  27 C  ( 0.000000,  0.000000, -0.000024)
  28 C  ( 0.000000,  0.000000,  0.000085)
  29 C  ( 0.000000,  0.000000,  0.000107)
  30 C  ( 0.000000,  0.000000,  0.001253)
  31 C  ( 0.000000,  0.000000,  0.001253)
  32 C  ( 0.000000,  0.000000, -0.000084)
  33 C  ( 0.000000,  0.000000, -0.001141)
  34 C  ( 0.000000,  0.000000, -0.000096)
  35 C  ( 0.000000,  0.000000, -0.000096)
  36 C  ( 0.000000,  0.000000,  0.000110)
  37 C  ( 0.000000,  0.000000,  0.000807)
  38 C  ( 0.000000,  0.000000,  0.000641)
  39 C  ( 0.000000,  0.000000,  0.000110)
  40 C  ( 0.000000,  0.000000,  0.002400)
  41 C  ( 0.000000,  0.000000, -0.000266)
  42 C  ( 0.000000,  0.000000, -0.000130)
  43 C  ( 0.000000,  0.000000, -0.000100)
  44 C  ( 0.000000,  0.000000,  0.000843)
  45 C  ( 0.000000,  0.000000,  0.000110)
  46 C  ( 0.000000,  0.000000,  0.000134)
  47 C  ( 0.000000,  0.000000,  0.001161)
  48 C  ( 0.000000,  0.000000,  0.000120)
  49 C  ( 0.000000,  0.000000, -0.000035)
  50 C  ( 0.000000,  0.000000, -0.000035)
  51 C  ( 0.000000,  0.000000,  0.000934)
  52 C  ( 0.000000,  0.000000,  0.000913)
  53 C  ( 0.000000,  0.000000,  0.000136)
  54 C  ( 0.000000,  0.000000,  0.000057)
  55 C  ( 0.000000,  0.000000,  0.000057)
  56 C  ( 0.000000,  0.000000,  0.002400)
  57 C  ( 0.000000,  0.000000, -0.000266)
  58 C  ( 0.000000,  0.000000, -0.000100)
  59 C  ( 0.000000,  0.000000, -0.000130)
  60 C  ( 0.000000,  0.000000,  0.001161)
  61 C  ( 0.000000,  0.000000,  0.000110)
  62 C  ( 0.000000,  0.000000,  0.000134)
  63 C  ( 0.000000,  0.000000,  0.000843)
  64 C  ( 0.000000,  0.000000, -0.000598)
  65 C  ( 0.000000,  0.000000, -0.000069)
  66 C  ( 0.000000,  0.000000, -0.000123)
  67 C  ( 0.000000,  0.000000, -0.000123)
  68 C  ( 0.000000,  0.000000,  0.000053)
  69 C  ( 0.000000,  0.000000,  0.000594)
  70 C  ( 0.000000,  0.000000,  0.000001)
  71 C  ( 0.000000,  0.000000,  0.000053)
  72 C  ( 0.000000,  0.000000,  0.000050)
  73 C  ( 0.000000,  0.000000, -0.000024)
  74 C  ( 0.000000,  0.000000, -0.000087)
  75 C  ( 0.000000,  0.000000, -0.000087)
[...]
  334      6.35431    1.00000      6.36566    1.00000
  335      6.35431    1.00000      6.36566    1.00000
  336      6.35724    1.00000      6.37044    1.00000
  337      6.35859    1.00000      6.37044    1.00000
  338      6.35859    1.00000      6.37620    1.00000
  339      6.37014    1.00000      6.37908    1.00000
  340      6.38520    1.00000      6.39629    1.00000
  341      6.38825    1.00000      6.40265    1.00000
  342      6.38825    1.00000      6.40265    1.00000
  343      6.40852    1.00000      6.41725    1.00000
  344      6.40852    1.00000      6.41725    1.00000
  345      6.42698    1.00000      6.44695    1.00000
  346      6.43289    1.00000      6.44695    1.00000
  347      6.43289    1.00000      6.46254    1.00000
  348      6.45027    1.00000      6.47479    1.00000
  349      6.48307    1.00000      6.49462    1.00000
  350      6.48307    1.00000      6.51753    1.00000
  351      6.48582    1.00000      6.51997    1.00000
  352      6.49778    1.00000      6.51997    1.00000
  353      6.59176    1.00000      6.64929    1.00000
  354      6.59176    1.00000      6.64929    1.00000
  355      6.90400    1.00000      6.92098    1.00000
  356      6.91224    1.00000      6.94396    1.00000
  357      6.91224    1.00000      6.94396    1.00000
  358      7.10844    1.00000      7.11606    1.00000
  359      7.10844    1.00000      7.11606    1.00000
  360      7.17687    1.00000      7.18014    1.00000
  361      7.17687    1.00000      7.18014    1.00000
  362      7.17849    1.00000      7.18249    1.00000
  363      7.18668    1.00000      7.18919    1.00000
  364      7.21585    1.00000      7.22270    1.00000
  365      7.21711    1.00000      7.22270    1.00000
  366      7.21711    1.00000      7.22661    1.00000
  367      7.21779    1.00000      7.22753    1.00000
  368      7.23871    1.00000      7.24749    1.00000
  369      7.23871    1.00000      7.24749    1.00000
  370      7.24702    1.00000      7.25971    1.00000
  371      7.24702    1.00000      7.26704    1.00000
  372      7.25057    1.00000      7.26704    1.00000
  373      7.25694    1.00000      7.28194    1.00000
  374      7.25694    1.00000      7.28194    1.00000
  375      7.27920    1.00000      7.28680    1.00000
  376      7.31522    1.00000      7.35376    1.00000
  377      7.31522    1.00000      7.35376    1.00000
  378      7.38136    1.00000      7.43340    1.00000
  379      8.08986    1.00000      8.10950    1.00000
  380      8.24137    1.00000      8.36229    1.00000
  381      8.24137    1.00000      8.36229    1.00000
  382      8.51517    1.00000      8.74401    1.00000
  383      8.72186    1.00000      8.74401    1.00000
  384      8.72186    1.00000      8.76344    1.00000
  385      8.78476    1.00000      8.78767    1.00000
  386      8.78476    1.00000      8.78767    1.00000
  387      8.78796    1.00000      8.79584    1.00000
  388      8.80489    1.00000      8.81039    1.00000
  389      8.80529    1.00000      8.82805    1.00000
  390      8.80800    1.00000      8.82805    1.00000
  391      8.80800    1.00000      8.84032    1.00000
  392      8.87715    1.00000      8.88465    1.00000
  393      8.87715    1.00000      8.88465    1.00000
  394      8.88828    1.00000      8.89814    1.00000
  395      8.97034    1.00000      8.97600    1.00000
  396      8.97034    1.00000      8.97600    1.00000
  397      9.02839    1.00000      9.03792    1.00000
  398      9.03595    1.00000      9.04060    1.00000
  399      9.03595    1.00000      9.04060    1.00000
  400      9.04207    1.00000      9.05035    1.00000
  401      9.04207    1.00000      9.05035    1.00000
  402      9.04871    1.00000      9.06500    1.00000
  403      9.04871    1.00000      9.06571    1.00000
  404      9.05758    1.00000      9.06571    1.00000
  405      9.07416    1.00000      9.09408    1.00000
  406      9.07416    1.00000      9.09408    1.00000
  407      9.10289    1.00000      9.11855    1.00000
  408      9.10524    1.00000      9.12558    1.00000
  409      9.10524    1.00000      9.12558    1.00000
  410      9.11013    1.00000      9.13956    1.00000
  411      9.13773    1.00000      9.14819    1.00000
  412      9.13773    1.00000      9.14819    1.00000
  413      9.74637    1.00000      9.76218    1.00000
  414      9.78486    1.00000      9.83586    1.00000
  415      9.78486    1.00000      9.83586    1.00000
  416      9.92227    1.00000     10.04953    1.00000
  417     10.03953    1.00000     10.04953    1.00000
  418     10.03953    1.00000     10.05806    1.00000
  419     10.05572    1.00000     10.08591    1.00000
  420     10.07911    1.00000     10.08591    1.00000
  421     10.07918    1.00000     10.08623    1.00000
  422     10.07918    1.00000     10.12473    1.00000
  423     10.10576    1.00000     10.16739    1.00000
  424     10.14288    1.00000     10.16739    1.00000
  425     10.14288    1.00000     10.42013    1.00000
  426     11.26223    1.00000     11.49205    1.00000
  427     11.42187    1.00000     11.49210    1.00000
  428     11.42187    1.00000     11.49210    1.00000
  429     12.14522    1.00000     13.11418    1.00000
  430     13.31392    1.00000     16.03891    0.00000
  431     13.31392    1.00000     16.03891    0.00000
  432     17.05415    0.00000     17.05824    0.00000
  433     17.05415    0.00000     17.05824    0.00000
  434     17.07157    0.00000     17.08323    0.00000
  435     17.10661    0.00000     17.12245    0.00000
  436     17.10661    0.00000     17.12245    0.00000
  437     17.13104    0.00000     17.14209    0.00000
  438     17.63246    0.00000     17.63800    0.00000
  439     17.69665    0.00000     17.70553    0.00000
  440     17.69665    0.00000     17.70553    0.00000
  441     17.71283    0.00000     17.72006    0.00000
  442     17.71283    0.00000     17.72006    0.00000
  443     17.78834    0.00000     17.80133    0.00000

Fermi level: 15.18403

Gap: 2.725 eV
Transition (v -> c):
  (s=0, k=0, n=431, [[0.00, 0.00, 0.00]]) -> (s=1, k=0, n=430, [[0.00, 0.00, 0.00]])
No difference between direct/indirect transitions

Forces in eV/Ang:
  0 C     0.00110    0.00110    0.00110
  1 C     0.00036    0.00028    0.00028
  2 C     0.00028    0.00028    0.00036
  3 C     0.00028    0.00036    0.00028
  4 C    -0.00025   -0.00006   -0.00025
  5 C     0.00050    0.00050    0.00050
  6 C    -0.00006   -0.00025   -0.00025
  7 C    -0.00025   -0.00025   -0.00006
  8 C     0.00014    0.00014    0.00054
  9 C    -0.00014    0.00006   -0.00020
 10 C    -0.00050   -0.00050   -0.00013
 11 C     0.00006   -0.00014   -0.00020
 12 C    -0.00003   -0.00066   -0.00018
 13 C    -0.00018   -0.00018    0.00031
 14 C    -0.00066   -0.00003   -0.00018
 15 C    -0.00101   -0.00101   -0.00068
 16 C     0.00108    0.00108    0.00102
 17 C     0.00102    0.00163    0.00121
 18 C     0.00072    0.00072    0.00017
 19 C     0.00163    0.00102    0.00121
 20 C     0.00073    0.00030    0.00066
 21 C     0.00165    0.00165    0.00099
 22 C     0.00030    0.00073    0.00066
 23 C     0.00029    0.00029    0.00008
 24 C     0.00014    0.00054    0.00014
 25 C    -0.00014   -0.00020    0.00006
 26 C     0.00006   -0.00020   -0.00014
 27 C    -0.00050   -0.00013   -0.00050
 28 C    -0.00101   -0.00068   -0.00101
 29 C    -0.00018    0.00031   -0.00018
 30 C    -0.00066   -0.00018   -0.00003
 31 C    -0.00003   -0.00018   -0.00066
 32 C    -0.00043   -0.00074   -0.00074
 33 C    -0.00099   -0.00050   -0.00050
 34 C    -0.00095   -0.00088   -0.00092
 35 C    -0.00095   -0.00092   -0.00088
 36 C    -0.00088   -0.00085   -0.00076
 37 C    -0.00093   -0.00099   -0.00099
 38 C    -0.00106   -0.00042   -0.00042
 39 C    -0.00088   -0.00076   -0.00085
 40 C    -0.00081    0.00028   -0.00018
 41 C     0.00057    0.00016    0.00098
 42 C    -0.00088   -0.00074   -0.00047
 43 C    -0.00022   -0.00018    0.00004
 44 C    -0.00029   -0.00048   -0.00010
 45 C    -0.00038   -0.00047   -0.00007
 46 C     0.00062    0.00024    0.00084
 47 C    -0.00042   -0.00055   -0.00020
 48 C     0.00108    0.00102    0.00108
 49 C     0.00102    0.00121    0.00163
 50 C     0.00163    0.00121    0.00102
 51 C     0.00072    0.00017    0.00072
 52 C     0.00029    0.00008    0.00029
 53 C     0.00165    0.00099    0.00165
 54 C     0.00030    0.00066    0.00073
 55 C     0.00073    0.00066    0.00030
 56 C    -0.00081   -0.00018    0.00028
 57 C     0.00057    0.00098    0.00016
 58 C    -0.00022    0.00004   -0.00018
 59 C    -0.00088   -0.00047   -0.00074
 60 C    -0.00042   -0.00020   -0.00055
 61 C    -0.00038   -0.00007   -0.00047
 62 C     0.00062    0.00084    0.00024
 63 C    -0.00029   -0.00010   -0.00048
 64 C     0.00013    0.00063    0.00063
 65 C     0.00241    0.00230    0.00230
 66 C     0.00044    0.00056    0.00025
 67 C     0.00044    0.00025    0.00056
 68 C     0.00091    0.00040    0.00000
 69 C     0.00067    0.00090    0.00090
 70 C     0.00230    0.00169    0.00169
 71 C     0.00091    0.00000    0.00040
 72 C     0.00054    0.00014    0.00014
 73 C    -0.00013   -0.00050   -0.00050
 74 C    -0.00020    0.00006   -0.00014
 75 C    -0.00020   -0.00014    0.00006
 76 C    -0.00018   -0.00066   -0.00003
 77 C     0.00031   -0.00018   -0.00018
 78 C    -0.00068   -0.00101   -0.00101
 79 C    -0.00018   -0.00003   -0.00066
 80 C    -0.00074   -0.00043   -0.00074
 81 C    -0.00092   -0.00095   -0.00088
 82 C    -0.00088   -0.00095   -0.00092
 83 C    -0.00050   -0.00099   -0.00050
 84 C    -0.00042   -0.00106   -0.00042
 85 C    -0.00099   -0.00093   -0.00099
 86 C    -0.00085   -0.00088   -0.00076
 87 C    -0.00076   -0.00088   -0.00085
 88 C     0.00028   -0.00081   -0.00018
 89 C    -0.00018   -0.00022    0.00004
 90 C    -0.00074   -0.00088   -0.00047
 91 C     0.00016    0.00057    0.00098
 92 C     0.00024    0.00062    0.00084
 93 C    -0.00047   -0.00038   -0.00007
 94 C    -0.00048   -0.00029   -0.00010
 95 C    -0.00055   -0.00042   -0.00020
 96 C    -0.00074   -0.00074   -0.00043
 97 C    -0.00092   -0.00088   -0.00095
 98 C    -0.00050   -0.00050   -0.00099
 99 C    -0.00088   -0.00092   -0.00095
100 C    -0.00076   -0.00085   -0.00088
101 C    -0.00099   -0.00099   -0.00093
102 C    -0.00085   -0.00076   -0.00088
103 C    -0.00042   -0.00042   -0.00106
104 C    -0.00120   -0.00120   -0.00120
105 C    -0.00094   -0.00100   -0.00100
106 C    -0.00100   -0.00100   -0.00094
107 C    -0.00100   -0.00094   -0.00100
108 C    -0.00127   -0.00096   -0.00127
109 C    -0.00114   -0.00114   -0.00114
110 C    -0.00096   -0.00127   -0.00127
111 C    -0.00127   -0.00127   -0.00096
112 C    -0.00047   -0.00047   -0.00054
113 C    -0.00045   -0.00052   -0.00053
114 C    -0.00228   -0.00228   -0.00079
115 C    -0.00052   -0.00045   -0.00053
116 C     0.00009    0.00037   -0.00103
117 C    -0.00058   -0.00058   -0.00082
118 C     0.00037    0.00009   -0.00103
119 C     0.00092    0.00092   -0.00218
120 C     0.00028   -0.00018   -0.00081
121 C    -0.00018    0.00004   -0.00022
122 C     0.00016    0.00098    0.00057
123 C    -0.00074   -0.00047   -0.00088
124 C    -0.00055   -0.00020   -0.00042
125 C    -0.00047   -0.00007   -0.00038
126 C    -0.00048   -0.00010   -0.00029
127 C     0.00024    0.00084    0.00062
128 C    -0.00047   -0.00054   -0.00047
129 C    -0.00045   -0.00053   -0.00052
130 C    -0.00052   -0.00053   -0.00045
131 C    -0.00228   -0.00079   -0.00228
132 C     0.00092   -0.00218    0.00092
133 C    -0.00058   -0.00082   -0.00058
134 C     0.00037   -0.00103    0.00009
135 C     0.00009   -0.00103    0.00037
136 C    -0.00044   -0.00073   -0.00073
137 C     0.00096   -0.00039   -0.00039
138 C    -0.00078    0.00120    0.00082
139 C    -0.00078    0.00082    0.00120
140 C     0.00101    0.00110    0.00060
141 C     0.00015   -0.00027   -0.00027
142 C     0.00043   -0.00002   -0.00002
143 C     0.00101    0.00060    0.00110
144 C     0.00102    0.00108    0.00108
145 C     0.00017    0.00072    0.00072
146 C     0.00121    0.00163    0.00102
147 C     0.00121    0.00102    0.00163
148 C     0.00066    0.00030    0.00073
149 C     0.00099    0.00165    0.00165
150 C     0.00008    0.00029    0.00029
151 C     0.00066    0.00073    0.00030
152 C    -0.00018   -0.00081    0.00028
153 C    -0.00047   -0.00088   -0.00074
154 C     0.00004   -0.00022   -0.00018
155 C     0.00098    0.00057    0.00016
156 C     0.00084    0.00062    0.00024
157 C    -0.00007   -0.00038   -0.00047
158 C    -0.00020   -0.00042   -0.00055
159 C    -0.00010   -0.00029   -0.00048
160 C     0.00063    0.00013    0.00063
161 C     0.00025    0.00044    0.00056
162 C     0.00056    0.00044    0.00025
163 C     0.00230    0.00241    0.00230
164 C     0.00169    0.00230    0.00169
165 C     0.00090    0.00067    0.00090
166 C     0.00040    0.00091    0.00000
167 C     0.00000    0.00091    0.00040
168 C    -0.00018    0.00028   -0.00081
169 C    -0.00047   -0.00074   -0.00088
170 C     0.00098    0.00016    0.00057
171 C     0.00004   -0.00018   -0.00022
172 C    -0.00010   -0.00048   -0.00029
173 C    -0.00007   -0.00047   -0.00038
174 C    -0.00020   -0.00055   -0.00042
175 C     0.00084    0.00024    0.00062
176 C    -0.00054   -0.00047   -0.00047
177 C    -0.00079   -0.00228   -0.00228
178 C    -0.00053   -0.00052   -0.00045
179 C    -0.00053   -0.00045   -0.00052
180 C    -0.00103    0.00037    0.00009
181 C    -0.00082   -0.00058   -0.00058
182 C    -0.00218    0.00092    0.00092
183 C    -0.00103    0.00009    0.00037
184 C    -0.00073   -0.00044   -0.00073
185 C     0.00082   -0.00078    0.00120
186 C     0.00120   -0.00078    0.00082
187 C    -0.00039    0.00096   -0.00039
188 C    -0.00002    0.00043   -0.00002
189 C    -0.00027    0.00015   -0.00027
190 C     0.00110    0.00101    0.00060
191 C     0.00060    0.00101    0.00110
192 C     0.00063    0.00063    0.00013
193 C     0.00025    0.00056    0.00044
194 C     0.00230    0.00230    0.00241
195 C     0.00056    0.00025    0.00044
196 C     0.00000    0.00040    0.00091
197 C     0.00090    0.00090    0.00067
198 C     0.00040    0.00000    0.00091
199 C     0.00169    0.00169    0.00230
200 C    -0.00073   -0.00073   -0.00044
201 C     0.00082    0.00120   -0.00078
202 C    -0.00039   -0.00039    0.00096
203 C     0.00120    0.00082   -0.00078
204 C     0.00060    0.00110    0.00101
205 C    -0.00027   -0.00027    0.00015
206 C     0.00110    0.00060    0.00101
207 C    -0.00002   -0.00002    0.00043
208 C     0.00248   -0.00025   -0.00025
209 C    -0.00025   -0.00025    0.00248
210 C    -0.00025    0.00248   -0.00025
211 C     0.00081    0.00316    0.00081
212 N     0.00127    0.00127    0.00127
213 C     0.00316    0.00081    0.00081
214 C     0.00081    0.00081    0.00316

Writing to _triplet.gpw (mode='all')

Timing:                                      incl.     excl.
-------------------------------------------------------------------
Density initialized from wave functions:     1.035     1.035   0.0% |
 Symmetrize density:                         0.000     0.000   0.0% |
Forces:                                   3791.498  3791.498   1.2% |
Hamiltonian:                                 2.419     0.023   0.0% |
 Atomic:                                     1.031     0.002   0.0% |
  XC Correction:                             1.029     1.029   0.0% |
 Calculate atomic Hamiltonians:              0.358     0.358   0.0% |
 Communicate:                                0.454     0.454   0.0% |
 Poisson:                                    0.001     0.001   0.0% |
 XC 3D grid:                                 0.553     0.553   0.0% |
PWDescriptor:                                0.013     0.013   0.0% |
Redistribute:                                0.003     0.003   0.0% |
SCF-cycle:                                7534.305     4.733   0.0% |
 Apply H:                                 1908.686  1908.680   0.6% |
  HMM T:                                     0.006     0.006   0.0% |
 Density:                                    0.869     0.000   0.0% |
  Atomic density matrices:                   0.035     0.035   0.0% |
  Mix:                                       0.666     0.666   0.0% |
  Multipole moments:                         0.000     0.000   0.0% |
  Pseudo density:                            0.166     0.166   0.0% |
   Symmetrize density:                       0.000     0.000   0.0% |
 Direct Minimisation step:                5616.990    10.835   0.0% |
  Apply H:                                3524.488  3524.475   1.1% |
   HMM T:                                    0.013     0.013   0.0% |
  Density:                                   3.470     0.000   0.0% |
   Atomic density matrices:                  0.140     0.140   0.0% |
   Mix:                                      2.658     2.658   0.0% |
   Multipole moments:                        0.002     0.002   0.0% |
   Pseudo density:                           0.670     0.670   0.0% |
    Symmetrize density:                      0.000     0.000   0.0% |
  Get Search Direction:                      2.162     2.162   0.0% |
  Gradient unoccupied orbitals:           2060.707     7.170   0.0% |
   Apply H:                               2052.745  2052.738   0.6% |
    HMM T:                                   0.006     0.006   0.0% |
   Orthonormalize:                           0.793     0.001   0.0% |
    calc_s_matrix:                           0.049     0.049   0.0% |
    inverse-cholesky:                        0.104     0.104   0.0% |
    projections:                             0.567     0.567   0.0% |
    rotate_psi_s:                            0.071     0.071   0.0% |
  Hamiltonian:                               9.898     0.071   0.0% |
   Atomic:                                   4.124     0.008   0.0% |
    XC Correction:                           4.116     4.116   0.0% |
   Calculate atomic Hamiltonians:            1.430     1.430   0.0% |
   Communicate:                              1.805     1.805   0.0% |
   New Kinetic Energy:                       0.324     0.324   0.0% |
   Poisson:                                  0.004     0.004   0.0% |
   XC 3D grid:                               2.139     2.139   0.0% |
  Orthonormalize:                            3.186     0.003   0.0% |
   Orthonormalize:                           0.794     0.001   0.0% |
    calc_s_matrix:                           0.049     0.049   0.0% |
    inverse-cholesky:                        0.102     0.102   0.0% |
    projections:                             0.571     0.571   0.0% |
    rotate_psi_s:                            0.071     0.071   0.0% |
   calc_s_matrix:                            0.146     0.146   0.0% |
   inverse-cholesky:                         0.325     0.325   0.0% |
   projections:                              1.703     1.703   0.0% |
   rotate_psi_s:                             0.215     0.215   0.0% |
  projections:                               2.244     2.244   0.0% |
 Hamiltonian:                                2.470     0.017   0.0% |
  Atomic:                                    1.033     0.003   0.0% |
   XC Correction:                            1.029     1.029   0.0% |
  Calculate atomic Hamiltonians:             0.357     0.357   0.0% |
  Communicate:                               0.447     0.447   0.0% |
  New Kinetic Energy:                        0.082     0.082   0.0% |
  Poisson:                                   0.001     0.001   0.0% |
  XC 3D grid:                                0.534     0.534   0.0% |
 projections:                                0.557     0.557   0.0% |
Set symmetry:                                0.000     0.000   0.0% |
Other:                                   317433.926 317433.926  96.6% |--------------------------------------|
-------------------------------------------------------------------
Total:                                             328763.201 100.0%

Memory usage: 5.52 GiB
Date: Tue Sep  2 20:13:33 2025
