
  ___ ___ ___ _ _ _  
 |   |   |_  | | | | 
 | | | | | . | | | | 
 |__ |  _|___|_____|  24.6.0
 |___|_|             

User:   ac2uoma125@i05r3n17
Date:   Thu Sep 19 00:47:58 2024
Arch:   x86_64
Pid:    7636
CWD:    /work/home/ac2uoma125/gpaw/hse06_nvcenter_215/tri_gs_relax
Python: 3.12.5
gpaw:   /work/home/ac2uoma125/anaconda3/envs/gpaw2460/lib/python3.12/site-packages/gpaw
_gpaw:  /work/home/ac2uoma125/anaconda3/envs/gpaw2460/lib/python3.12/site-packages/
        _gpaw.cpython-312-x86_64-linux-gnu.so
ase:    /work/home/ac2uoma125/anaconda3/envs/gpaw2460/lib/python3.12/site-packages/ase (version 3.23.0)
numpy:  /work/home/ac2uoma125/anaconda3/envs/gpaw2460/lib/python3.12/site-packages/numpy (version 1.26.4)
scipy:  /work/home/ac2uoma125/anaconda3/envs/gpaw2460/lib/python3.12/site-packages/scipy (version 1.14.1)
libxc:  6.2.2
units:  Angstrom and eV
cores: 32
OpenMP: True
OMP_NUM_THREADS: 1

Reading from ./pbe-gs-relax/nvcenter_gs_relax.gpw
Read dipole, energy, forces, free_energy, magmom, magmoms
Reading input parameters:
  charge: -1
  eigensolver: {blocksize: 1,
                converge_unocc: True,
                excited_state: False,
                functional: {'name': 'ks'},
                grad_tol_inner_loop: 0.0005,
                grad_tol_pz_localization: 0.0005,
                linesearch_algo: {'name': 'max-step', 'max_step': 0.2},
                localization_tol: None,
                localizationseed: None,
                localizationtype: None,
                max_step_inner_loop: 0.2,
                maxiter_inner_loop: 6,
                maxiter_pz_localization: 50,
                maxiter_unocc: 333,
                momevery: 10,
                name: etdm-fdpw,
                need_init_orbs: False,
                need_localization: False,
                printinnerloop: False,
                restart_canonical: True,
                restartevery_iloop_notconverged: 3,
                searchdir_algo: {'name': 'l-bfgs', 'memory': 3},
                use_prec: True}
  mixer: {backend: no-mixing}
  mode: {ecut: 600.0,
         name: pw}
  nbands: -12
  occupations: {name: fixed-uniform}
  spinpol: True
  symmetry: off
  xc: PBE

Initialize ...

species:
  C:
    name: Carbon
    id: 4aa54d4b901d75f77cc0ea3eec22967b
    Z: 6.0
    valence: 4
    core: 2
    charge: 0.0
    file: /work/home/ac2uoma125/anaconda3/envs/gpaw2460/share/gpaw/C.PBE.gz
    compensation charges: {type: gauss,
                           rc: 0.20,
                           lmax: 2}
    cutoffs: {filter: 1.14,
              core: 1.14}
    projectors:
      #              energy  rcut
      - 2s(2.00)   -13.751   0.635
      - 2p(2.00)    -5.284   0.635
      -  s          13.461   0.635
      -  p          21.927   0.635
      -  d           0.000   0.635
  
    # Using partial waves for C as LCAO basis

  N:
    name: Nitrogen
    id: f7500608b86eaa90eef8b1d9a670dc53
    Z: 7.0
    valence: 5
    core: 2
    charge: 0.0
    file: /work/home/ac2uoma125/anaconda3/envs/gpaw2460/share/gpaw/N.PBE.gz
    compensation charges: {type: gauss,
                           rc: 0.18,
                           lmax: 2}
    cutoffs: {filter: 1.11,
              core: 0.96}
    projectors:
      #              energy  rcut
      - 2s(2.00)   -18.583   0.603
      - 2p(3.00)    -7.089   0.529
      -  s           8.629   0.603
      -  p          20.123   0.529
      -  d           0.000   0.577
  
    # Using partial waves for N as LCAO basis

Reference energy: -221394.138216  # eV

Spin-polarized calculation.
Magnetic moment: 2.000000

Convergence criteria:
 Maximum [total energy] change in last 3 cyles: 0.0005 eV / valence electron
 Maximum integral of absolute [dens]ity change: 0.0001 electrons / valence electron
 Maximum integral of absolute [eigenst]ate change: 4e-08 eV^2 / valence electron
 Maximum number of scf [iter]ations: 333
 (Square brackets indicate name in SCF output, whereas a 'c' in
 the SCF output indicates the quantity has converged.)

Symmetries present (total): 1

  ( 1  0  0)
  ( 0  1  0)
  ( 0  0  1)

1 k-point (Gamma)
1 k-point in the irreducible part of the Brillouin zone
       k-points in crystal coordinates                weights
   0:     0.00000000    0.00000000    0.00000000          1/1

Wave functions: Plane wave expansion
  Cutoff energy: 600.000 eV
  Number of coefficients: 40243 (reduced to 20122)
  Pulay-stress correction: 0.000000 eV/Ang^3 (de/decut=0.000000)
  Using FFTW library
  ScaLapack parameters: grid=1x1, blocksize=None
  Wavefunction extrapolation:
    Improved wavefunction reuse through dual PAW basis 

Occupation numbers: # Uniform distribution of occupation numbers 

Eigensolver
   Direct minimisation using exponential transformation.
       Search direction: L-BFGS algorithm
       Line search: step size equals one
       Preconditioning: True
       Orbital-density self-interaction corrections: ks
       WARNING: do not use it for metals as occupation numbers are
                not found variationally
 

Densities:
  Coarse grid: 63*63*63 grid
  Fine grid: 126*126*126 grid
  Total Charge: -1.000000 

Density mixing:
  Method: difference
  Backend: no-mixing
  Linear mixing parameter: 0
  old densities: 0
  Damping of long wavelength oscillations: 0 

Hamiltonian:
  XC and Coulomb potentials evaluated on a 126*126*126 grid
  Using the PBE Exchange-Correlation functional
  External potential:
    NoExternalPotential
Poisson solver:
  Uniform background charge: -1.000 electrons
 

XC parameters: PBE with 2 nearest neighbor stencil

Memory estimate:
  Process memory now: 339.53 MiB
Attribute error: AttributeError("'FDPWETDM' object has no attribute 'estimate_memory'")
Some object probably lacks estimate_memory() method
Memory breakdown may be incomplete
  Calculator: 13.99 MiB
    Density: 3.82 MiB
      Arrays: 2.16 MiB
      Localized functions: 1.67 MiB
      Mixer: 0.00 MiB
    Hamiltonian: 1.64 MiB
      Arrays: 1.60 MiB
      XC: 0.00 MiB
      Poisson: 0.00 MiB
      vbar: 0.04 MiB
    Wavefunctions: 8.52 MiB
      Arrays psit_nG: 8.52 MiB

Total number of cores used: 32
Domain decomposition: 4 x 4 x 2

Number of atoms: 215
Number of atomic orbitals: 860
Number of bands in calculation: 444
Number of valence electrons: 862
Bands to converge: all

... initialized

Input parameters:
  xc: HSE06

Initialize ...

species:
  C:
    name: Carbon
    id: 4aa54d4b901d75f77cc0ea3eec22967b
    Z: 6.0
    valence: 4
    core: 2
    charge: 0.0
    file: /work/home/ac2uoma125/anaconda3/envs/gpaw2460/share/gpaw/C.PBE.gz
    compensation charges: {type: gauss,
                           rc: 0.20,
                           lmax: 2}
    cutoffs: {filter: 1.14,
              core: 1.14}
    projectors:
      #              energy  rcut
      - 2s(2.00)   -13.751   0.635
      - 2p(2.00)    -5.284   0.635
      -  s          13.461   0.635
      -  p          21.927   0.635
      -  d           0.000   0.635
  
    # Using partial waves for C as LCAO basis

  N:
    name: Nitrogen
    id: f7500608b86eaa90eef8b1d9a670dc53
    Z: 7.0
    valence: 5
    core: 2
    charge: 0.0
    file: /work/home/ac2uoma125/anaconda3/envs/gpaw2460/share/gpaw/N.PBE.gz
    compensation charges: {type: gauss,
                           rc: 0.18,
                           lmax: 2}
    cutoffs: {filter: 1.11,
              core: 0.96}
    projectors:
      #              energy  rcut
      - 2s(2.00)   -18.583   0.603
      - 2p(3.00)    -7.089   0.529
      -  s           8.629   0.603
      -  p          20.123   0.529
      -  d           0.000   0.577
  
    # Using partial waves for N as LCAO basis

Reference energy: -221394.138216  # eV

Spin-polarized calculation.
Magnetic moment: 2.000000

Convergence criteria:
 Maximum [total energy] change in last 3 cyles: 0.0005 eV / valence electron
 Maximum integral of absolute [dens]ity change: 0.0001 electrons / valence electron
 Maximum integral of absolute [eigenst]ate change: 4e-08 eV^2 / valence electron
 Maximum number of scf [iter]ations: 333
 (Square brackets indicate name in SCF output, whereas a 'c' in
 the SCF output indicates the quantity has converged.)

Occupation numbers: # Uniform distribution of occupation numbers 

Density mixing:
  Method: difference
  Backend: no-mixing
  Linear mixing parameter: 0
  old densities: 0
  Damping of long wavelength oscillations: 0 

Hamiltonian:
  XC and Coulomb potentials evaluated on a 126*126*126 grid
  Using the HSE06 Exchange-Correlation functional
  External potential:
    NoExternalPotential
Poisson solver:
  Uniform background charge: -1.000 electrons
 

XC parameters: HYB_GGA_XC_HSE06 + 0.25 * EXX(omega = 0.11 bohr^-1)

Memory estimate:
  Process memory now: 339.53 MiB
Attribute error: AttributeError("'HybridXC' object has no attribute 'estimate_memory'")
Some object probably lacks estimate_memory() method
Memory breakdown may be incomplete
  Calculator: 5.42 MiB
    Density: 3.82 MiB
      Arrays: 2.16 MiB
      Localized functions: 1.67 MiB
      Mixer: 0.00 MiB
    Hamiltonian: 1.60 MiB
      Arrays: 1.60 MiB

Total number of cores used: 32
Domain decomposition: 4 x 4 x 2

Number of atoms: 215
Number of atomic orbitals: 860
Number of bands in calculation: 444
Number of valence electrons: 862
Bands to converge: all

... initialized

Initializing position-dependent things.

Density initialized from wave functions
        .--------C----------------.  
       /|           C             |  
      / | C   C   C  C C   C      |  
     / C|    C  C    C  C     C   |  
    /  C|C    C CCC    C CCC   C  |  
   /    C C C    C C C    N CC    |  
  /  C C| CCCCCC  C C C    C CC   |  
 *    C C   CCCCC    C C C    C C |  
 |C    CCC C  CCCCC C  CCCCC   C C|  
 |   C  CCC C    CCC C C CCCCC    C  
 |  C C | CCCC C  C CCC C  CC C   |  
 C   C  C   C C C    CCC C   CC C |  
 |    CCCC C C CCCCC C CCCC C  C  |  
 |     C.CC-C-C-C-CC-C-C-C-C-C----.  
 |  C C/C CCCC   C C CC C C CCC  /   
 |   CC     C CC    C C      C  /    
 |   /C C      CCC     C C     /     
 |  /    C C      C C      CC /      
 | /C       C        C C     /       
 |/                     C   /        
 C----------------C--------*         

Positions:
   0 C      0.002333    0.002333    0.002333    ( 0.0000,  0.0000,  0.0000)
   1 C     -0.000338    1.774164    1.774164    ( 0.0000,  0.0000,  0.0000)
   2 C      1.774164    1.774164   -0.000338    ( 0.0000,  0.0000,  0.0000)
   3 C      1.774164   -0.000338    1.774164    ( 0.0000,  0.0000,  0.0000)
   4 C      2.660191    0.886131    2.660191    ( 0.0000,  0.0000,  0.0000)
   5 C      0.887822    0.887822    0.887822    ( 0.0000,  0.0000,  0.0000)
   6 C      0.886131    2.660191    2.660191    ( 0.0000,  0.0000,  0.0000)
   7 C      2.660191    2.660191    0.886131    ( 0.0000,  0.0000,  0.0000)
   8 C     -0.001967   -0.001967    3.550158    ( 0.0000,  0.0000,  0.0000)
   9 C     -0.001402    1.771914    5.320303    ( 0.0000,  0.0000,  0.0000)
  10 C      1.772681    1.772681    3.547070    ( 0.0000,  0.0000,  0.0000)
  11 C      1.771914   -0.001402    5.320303    ( 0.0000,  0.0000,  0.0000)
  12 C      2.658476    0.886566    6.206808    ( 0.0000,  0.0000,  0.0000)
  13 C      0.885294    0.885294    4.434492    ( 0.0000,  0.0000,  0.0000)
  14 C      0.886566    2.658476    6.206808    ( 0.0000,  0.0000,  0.0000)
  15 C      2.659573    2.659573    4.433263    ( 0.0000,  0.0000,  0.0000)
  16 C      0.005363    0.005363    7.096030    ( 0.0000,  0.0000,  0.0000)
  17 C      0.000816    1.776700    8.866655    ( 0.0000,  0.0000,  0.0000)
  18 C      1.773067    1.773067    7.093070    ( 0.0000,  0.0000,  0.0000)
  19 C      1.776700    0.000816    8.866655    ( 0.0000,  0.0000,  0.0000)
  20 C      2.662730    0.886017    9.752213    ( 0.0000,  0.0000,  0.0000)
  21 C      0.889763    0.889763    7.980452    ( 0.0000,  0.0000,  0.0000)
  22 C      0.886017    2.662730    9.752213    ( 0.0000,  0.0000,  0.0000)
  23 C      2.657416    2.657416    7.978366    ( 0.0000,  0.0000,  0.0000)
  24 C     -0.001967    3.550158   -0.001967    ( 0.0000,  0.0000,  0.0000)
  25 C     -0.001402    5.320303    1.771914    ( 0.0000,  0.0000,  0.0000)
  26 C      1.771914    5.320303   -0.001402    ( 0.0000,  0.0000,  0.0000)
  27 C      1.772681    3.547070    1.772681    ( 0.0000,  0.0000,  0.0000)
  28 C      2.659573    4.433263    2.659573    ( 0.0000,  0.0000,  0.0000)
  29 C      0.885294    4.434492    0.885294    ( 0.0000,  0.0000,  0.0000)
  30 C      0.886566    6.206808    2.658476    ( 0.0000,  0.0000,  0.0000)
  31 C      2.658476    6.206808    0.886566    ( 0.0000,  0.0000,  0.0000)
  32 C     -0.001383    3.546575    3.546575    ( 0.0000,  0.0000,  0.0000)
  33 C     -0.002479    5.320008    5.320008    ( 0.0000,  0.0000,  0.0000)
  34 C      1.772041    5.319390    3.546084    ( 0.0000,  0.0000,  0.0000)
  35 C      1.772041    3.546084    5.319390    ( 0.0000,  0.0000,  0.0000)
  36 C      2.657924    4.432255    6.205855    ( 0.0000,  0.0000,  0.0000)
  37 C      0.885335    4.433024    4.433024    ( 0.0000,  0.0000,  0.0000)
  38 C      0.883704    6.206856    6.206856    ( 0.0000,  0.0000,  0.0000)
  39 C      2.657924    6.205855    4.432255    ( 0.0000,  0.0000,  0.0000)
  40 C     -0.000060    3.545900    7.091491    ( 0.0000,  0.0000,  0.0000)
  41 C     -0.010746    5.329775    8.863218    ( 0.0000,  0.0000,  0.0000)
  42 C      1.771220    5.320915    7.092498    ( 0.0000,  0.0000,  0.0000)
  43 C      1.770857    3.548799    8.865664    ( 0.0000,  0.0000,  0.0000)
  44 C      2.658776    4.433832    9.751634    ( 0.0000,  0.0000,  0.0000)
  45 C      0.881610    4.437495    7.977930    ( 0.0000,  0.0000,  0.0000)
  46 C      0.885008    6.208862    9.751952    ( 0.0000,  0.0000,  0.0000)
  47 C      2.660143    6.206442    7.978210    ( 0.0000,  0.0000,  0.0000)
  48 C      0.005363    7.096030    0.005363    ( 0.0000,  0.0000,  0.0000)
  49 C      0.000816    8.866655    1.776700    ( 0.0000,  0.0000,  0.0000)
  50 C      1.776700    8.866655    0.000816    ( 0.0000,  0.0000,  0.0000)
  51 C      1.773067    7.093070    1.773067    ( 0.0000,  0.0000,  0.0000)
  52 C      2.657416    7.978366    2.657416    ( 0.0000,  0.0000,  0.0000)
  53 C      0.889763    7.980452    0.889763    ( 0.0000,  0.0000,  0.0000)
  54 C      0.886017    9.752213    2.662730    ( 0.0000,  0.0000,  0.0000)
  55 C      2.662730    9.752213    0.886017    ( 0.0000,  0.0000,  0.0000)
  56 C     -0.000060    7.091491    3.545900    ( 0.0000,  0.0000,  0.0000)
  57 C     -0.010746    8.863218    5.329775    ( 0.0000,  0.0000,  0.0000)
  58 C      1.770857    8.865664    3.548799    ( 0.0000,  0.0000,  0.0000)
  59 C      1.771220    7.092498    5.320915    ( 0.0000,  0.0000,  0.0000)
  60 C      2.660143    7.978210    6.206442    ( 0.0000,  0.0000,  0.0000)
  61 C      0.881610    7.977930    4.437495    ( 0.0000,  0.0000,  0.0000)
  62 C      0.885008    9.751952    6.208862    ( 0.0000,  0.0000,  0.0000)
  63 C      2.658776    9.751634    4.433832    ( 0.0000,  0.0000,  0.0000)
  64 C     -0.005261    7.094083    7.094083    ( 0.0000,  0.0000,  0.0000)
  65 C      0.007736    8.871125    8.871125    ( 0.0000,  0.0000,  0.0000)
  66 C      1.773942    8.865208    7.093178    ( 0.0000,  0.0000,  0.0000)
  67 C      1.773942    7.093178    8.865208    ( 0.0000,  0.0000,  0.0000)
  68 C      2.662136    7.979029    9.751623    ( 0.0000,  0.0000,  0.0000)
  69 C      0.887203    7.980603    7.980603    ( 0.0000,  0.0000,  0.0000)
  70 C      0.891802    9.755475    9.755475    ( 0.0000,  0.0000,  0.0000)
  71 C      2.662136    9.751623    7.979029    ( 0.0000,  0.0000,  0.0000)
  72 C      3.550158   -0.001967   -0.001967    ( 0.0000,  0.0000,  0.0000)
  73 C      3.547070    1.772681    1.772681    ( 0.0000,  0.0000,  0.0000)
  74 C      5.320303    1.771914   -0.001402    ( 0.0000,  0.0000,  0.0000)
  75 C      5.320303   -0.001402    1.771914    ( 0.0000,  0.0000,  0.0000)
  76 C      6.206808    0.886566    2.658476    ( 0.0000,  0.0000,  0.0000)
  77 C      4.434492    0.885294    0.885294    ( 0.0000,  0.0000,  0.0000)
  78 C      4.433263    2.659573    2.659573    ( 0.0000,  0.0000,  0.0000)
  79 C      6.206808    2.658476    0.886566    ( 0.0000,  0.0000,  0.0000)
  80 C      3.546575   -0.001383    3.546575    ( 0.0000,  0.0000,  0.0000)
  81 C      3.546084    1.772041    5.319390    ( 0.0000,  0.0000,  0.0000)
  82 C      5.319390    1.772041    3.546084    ( 0.0000,  0.0000,  0.0000)
  83 C      5.320008   -0.002479    5.320008    ( 0.0000,  0.0000,  0.0000)
  84 C      6.206856    0.883704    6.206856    ( 0.0000,  0.0000,  0.0000)
  85 C      4.433024    0.885335    4.433024    ( 0.0000,  0.0000,  0.0000)
  86 C      4.432255    2.657924    6.205855    ( 0.0000,  0.0000,  0.0000)
  87 C      6.205855    2.657924    4.432255    ( 0.0000,  0.0000,  0.0000)
  88 C      3.545900   -0.000060    7.091491    ( 0.0000,  0.0000,  0.0000)
  89 C      3.548799    1.770857    8.865664    ( 0.0000,  0.0000,  0.0000)
  90 C      5.320915    1.771220    7.092498    ( 0.0000,  0.0000,  0.0000)
  91 C      5.329775   -0.010746    8.863218    ( 0.0000,  0.0000,  0.0000)
  92 C      6.208862    0.885008    9.751952    ( 0.0000,  0.0000,  0.0000)
  93 C      4.437495    0.881610    7.977930    ( 0.0000,  0.0000,  0.0000)
  94 C      4.433832    2.658776    9.751634    ( 0.0000,  0.0000,  0.0000)
  95 C      6.206442    2.660143    7.978210    ( 0.0000,  0.0000,  0.0000)
  96 C      3.546575    3.546575   -0.001383    ( 0.0000,  0.0000,  0.0000)
  97 C      3.546084    5.319390    1.772041    ( 0.0000,  0.0000,  0.0000)
  98 C      5.320008    5.320008   -0.002479    ( 0.0000,  0.0000,  0.0000)
  99 C      5.319390    3.546084    1.772041    ( 0.0000,  0.0000,  0.0000)
 100 C      6.205855    4.432255    2.657924    ( 0.0000,  0.0000,  0.0000)
 101 C      4.433024    4.433024    0.885335    ( 0.0000,  0.0000,  0.0000)
 102 C      4.432255    6.205855    2.657924    ( 0.0000,  0.0000,  0.0000)
 103 C      6.206856    6.206856    0.883704    ( 0.0000,  0.0000,  0.0000)
 104 C      3.546503    3.546503    3.546503    ( 0.0000,  0.0000,  0.0000)
 105 C      3.547005    5.320678    5.320678    ( 0.0000,  0.0000,  0.0000)
 106 C      5.320678    5.320678    3.547005    ( 0.0000,  0.0000,  0.0000)
 107 C      5.320678    3.547005    5.320678    ( 0.0000,  0.0000,  0.0000)
 108 C      6.205434    4.435602    6.205434    ( 0.0000,  0.0000,  0.0000)
 109 C      4.433053    4.433053    4.433053    ( 0.0000,  0.0000,  0.0000)
 110 C      4.435602    6.205434    6.205434    ( 0.0000,  0.0000,  0.0000)
 111 C      6.205434    6.205434    4.435602    ( 0.0000,  0.0000,  0.0000)
 112 C      3.541242    3.541242    7.093147    ( 0.0000,  0.0000,  0.0000)
 113 C      3.546300    5.319023    8.864220    ( 0.0000,  0.0000,  0.0000)
 114 C      5.322223    5.322223    7.096529    ( 0.0000,  0.0000,  0.0000)
 115 C      5.319023    3.546300    8.864220    ( 0.0000,  0.0000,  0.0000)
 116 C      6.208658    4.430296    9.754436    ( 0.0000,  0.0000,  0.0000)
 117 C      4.423978    4.423978    7.974203    ( 0.0000,  0.0000,  0.0000)
 118 C      4.430296    6.208658    9.754436    ( 0.0000,  0.0000,  0.0000)
 119 C      6.147838    6.147838    8.011483    ( 0.0000,  0.0000,  0.0000)
 120 C      3.545900    7.091491   -0.000060    ( 0.0000,  0.0000,  0.0000)
 121 C      3.548799    8.865664    1.770857    ( 0.0000,  0.0000,  0.0000)
 122 C      5.329775    8.863218   -0.010746    ( 0.0000,  0.0000,  0.0000)
 123 C      5.320915    7.092498    1.771220    ( 0.0000,  0.0000,  0.0000)
 124 C      6.206442    7.978210    2.660143    ( 0.0000,  0.0000,  0.0000)
 125 C      4.437495    7.977930    0.881610    ( 0.0000,  0.0000,  0.0000)
 126 C      4.433832    9.751634    2.658776    ( 0.0000,  0.0000,  0.0000)
 127 C      6.208862    9.751952    0.885008    ( 0.0000,  0.0000,  0.0000)
 128 C      3.541242    7.093147    3.541242    ( 0.0000,  0.0000,  0.0000)
 129 C      3.546300    8.864220    5.319023    ( 0.0000,  0.0000,  0.0000)
 130 C      5.319023    8.864220    3.546300    ( 0.0000,  0.0000,  0.0000)
 131 C      5.322223    7.096529    5.322223    ( 0.0000,  0.0000,  0.0000)
 132 C      6.147838    8.011483    6.147838    ( 0.0000,  0.0000,  0.0000)
 133 C      4.423978    7.974203    4.423978    ( 0.0000,  0.0000,  0.0000)
 134 C      4.430296    9.754436    6.208658    ( 0.0000,  0.0000,  0.0000)
 135 C      6.208658    9.754436    4.430296    ( 0.0000,  0.0000,  0.0000)
 136 C      3.550275    7.090941    7.090941    ( 0.0000,  0.0000,  0.0000)
 137 C      3.552151    8.861516    8.861516    ( 0.0000,  0.0000,  0.0000)
 138 C      5.334989    8.845084    7.083171    ( 0.0000,  0.0000,  0.0000)
 139 C      5.334989    7.083171    8.845084    ( 0.0000,  0.0000,  0.0000)
 140 C      6.223042    7.971668    9.734720    ( 0.0000,  0.0000,  0.0000)
 141 C      4.440959    7.974256    7.974256    ( 0.0000,  0.0000,  0.0000)
 142 C      4.438429    9.748533    9.748533    ( 0.0000,  0.0000,  0.0000)
 143 C      6.223042    9.734720    7.971668    ( 0.0000,  0.0000,  0.0000)
 144 C      7.096030    0.005363    0.005363    ( 0.0000,  0.0000,  0.0000)
 145 C      7.093070    1.773067    1.773067    ( 0.0000,  0.0000,  0.0000)
 146 C      8.866655    1.776700    0.000816    ( 0.0000,  0.0000,  0.0000)
 147 C      8.866655    0.000816    1.776700    ( 0.0000,  0.0000,  0.0000)
 148 C      9.752213    0.886017    2.662730    ( 0.0000,  0.0000,  0.0000)
 149 C      7.980452    0.889763    0.889763    ( 0.0000,  0.0000,  0.0000)
 150 C      7.978366    2.657416    2.657416    ( 0.0000,  0.0000,  0.0000)
 151 C      9.752213    2.662730    0.886017    ( 0.0000,  0.0000,  0.0000)
 152 C      7.091491   -0.000060    3.545900    ( 0.0000,  0.0000,  0.0000)
 153 C      7.092498    1.771220    5.320915    ( 0.0000,  0.0000,  0.0000)
 154 C      8.865664    1.770857    3.548799    ( 0.0000,  0.0000,  0.0000)
 155 C      8.863218   -0.010746    5.329775    ( 0.0000,  0.0000,  0.0000)
 156 C      9.751952    0.885008    6.208862    ( 0.0000,  0.0000,  0.0000)
 157 C      7.977930    0.881610    4.437495    ( 0.0000,  0.0000,  0.0000)
 158 C      7.978210    2.660143    6.206442    ( 0.0000,  0.0000,  0.0000)
 159 C      9.751634    2.658776    4.433832    ( 0.0000,  0.0000,  0.0000)
 160 C      7.094083   -0.005261    7.094083    ( 0.0000,  0.0000,  0.0000)
 161 C      7.093178    1.773942    8.865208    ( 0.0000,  0.0000,  0.0000)
 162 C      8.865208    1.773942    7.093178    ( 0.0000,  0.0000,  0.0000)
 163 C      8.871125    0.007736    8.871125    ( 0.0000,  0.0000,  0.0000)
 164 C      9.755475    0.891802    9.755475    ( 0.0000,  0.0000,  0.0000)
 165 C      7.980603    0.887203    7.980603    ( 0.0000,  0.0000,  0.0000)
 166 C      7.979029    2.662136    9.751623    ( 0.0000,  0.0000,  0.0000)
 167 C      9.751623    2.662136    7.979029    ( 0.0000,  0.0000,  0.0000)
 168 C      7.091491    3.545900   -0.000060    ( 0.0000,  0.0000,  0.0000)
 169 C      7.092498    5.320915    1.771220    ( 0.0000,  0.0000,  0.0000)
 170 C      8.863218    5.329775   -0.010746    ( 0.0000,  0.0000,  0.0000)
 171 C      8.865664    3.548799    1.770857    ( 0.0000,  0.0000,  0.0000)
 172 C      9.751634    4.433832    2.658776    ( 0.0000,  0.0000,  0.0000)
 173 C      7.977930    4.437495    0.881610    ( 0.0000,  0.0000,  0.0000)
 174 C      7.978210    6.206442    2.660143    ( 0.0000,  0.0000,  0.0000)
 175 C      9.751952    6.208862    0.885008    ( 0.0000,  0.0000,  0.0000)
 176 C      7.093147    3.541242    3.541242    ( 0.0000,  0.0000,  0.0000)
 177 C      7.096529    5.322223    5.322223    ( 0.0000,  0.0000,  0.0000)
 178 C      8.864220    5.319023    3.546300    ( 0.0000,  0.0000,  0.0000)
 179 C      8.864220    3.546300    5.319023    ( 0.0000,  0.0000,  0.0000)
 180 C      9.754436    4.430296    6.208658    ( 0.0000,  0.0000,  0.0000)
 181 C      7.974203    4.423978    4.423978    ( 0.0000,  0.0000,  0.0000)
 182 C      8.011483    6.147838    6.147838    ( 0.0000,  0.0000,  0.0000)
 183 C      9.754436    6.208658    4.430296    ( 0.0000,  0.0000,  0.0000)
 184 C      7.090941    3.550275    7.090941    ( 0.0000,  0.0000,  0.0000)
 185 C      7.083171    5.334989    8.845084    ( 0.0000,  0.0000,  0.0000)
 186 C      8.845084    5.334989    7.083171    ( 0.0000,  0.0000,  0.0000)
 187 C      8.861516    3.552151    8.861516    ( 0.0000,  0.0000,  0.0000)
 188 C      9.748533    4.438429    9.748533    ( 0.0000,  0.0000,  0.0000)
 189 C      7.974256    4.440959    7.974256    ( 0.0000,  0.0000,  0.0000)
 190 C      7.971668    6.223042    9.734720    ( 0.0000,  0.0000,  0.0000)
 191 C      9.734720    6.223042    7.971668    ( 0.0000,  0.0000,  0.0000)
 192 C      7.094083    7.094083   -0.005261    ( 0.0000,  0.0000,  0.0000)
 193 C      7.093178    8.865208    1.773942    ( 0.0000,  0.0000,  0.0000)
 194 C      8.871125    8.871125    0.007736    ( 0.0000,  0.0000,  0.0000)
 195 C      8.865208    7.093178    1.773942    ( 0.0000,  0.0000,  0.0000)
 196 C      9.751623    7.979029    2.662136    ( 0.0000,  0.0000,  0.0000)
 197 C      7.980603    7.980603    0.887203    ( 0.0000,  0.0000,  0.0000)
 198 C      7.979029    9.751623    2.662136    ( 0.0000,  0.0000,  0.0000)
 199 C      9.755475    9.755475    0.891802    ( 0.0000,  0.0000,  0.0000)
 200 C      7.090941    7.090941    3.550275    ( 0.0000,  0.0000,  0.0000)
 201 C      7.083171    8.845084    5.334989    ( 0.0000,  0.0000,  0.0000)
 202 C      8.861516    8.861516    3.552151    ( 0.0000,  0.0000,  0.0000)
 203 C      8.845084    7.083171    5.334989    ( 0.0000,  0.0000,  0.0000)
 204 C      9.734720    7.971668    6.223042    ( 0.0000,  0.0000,  0.0000)
 205 C      7.974256    7.974256    4.440959    ( 0.0000,  0.0000,  0.0000)
 206 C      7.971668    9.734720    6.223042    ( 0.0000,  0.0000,  0.0000)
 207 C      9.748533    9.748533    4.438429    ( 0.0000,  0.0000,  0.0000)
 208 C      7.134910    8.863799    8.863799    ( 0.0000,  0.0000,  0.0000)
 209 C      8.863799    8.863799    7.134910    ( 0.0000,  0.0000,  0.0000)
 210 C      8.863799    7.134910    8.863799    ( 0.0000,  0.0000,  0.0000)
 211 C      9.765849    7.984454    9.765849    ( 0.0000,  0.0000,  0.0000)
 212 N      8.058497    8.058497    8.058497    ( 0.0000,  0.0000,  2.0000)
 213 C      7.984454    9.765849    9.765849    ( 0.0000,  0.0000,  0.0000)
 214 C      9.765849    9.765849    7.984454    ( 0.0000,  0.0000,  0.0000)

Unit cell:
           periodic     x           y           z      points  spacing
  1. axis:    yes   10.639295    0.000000    0.000000    63     0.1689
  2. axis:    yes    0.000000   10.639295    0.000000    63     0.1689
  3. axis:    yes    0.000000    0.000000   10.639295    63     0.1689

  Lengths:  10.639295  10.639295  10.639295
  Angles:   90.000000  90.000000  90.000000

Effective grid spacing dv^(1/3) = 0.1689

     iter     time        total  log10-change:  magmom
                         energy   eigst   dens
iter:   1 01:07:46 -2156.612939   -1.32  -2.42    +2.0000
iter:   2 01:17:37 -2156.072854   -2.08  -2.48    +2.0000
iter:   3 01:27:29 -2156.953711   -2.87  -3.34    +2.0000
iter:   4 01:37:21 -2157.002570   -2.35  -3.31    +2.0000
iter:   5 01:47:13 -2157.739909   -2.84  -3.90    +2.0000
iter:   6 01:57:03 -2157.833887   -3.85  -3.75    +2.0000
iter:   7 02:06:54 -2157.645566c  -3.81  -4.53c   +2.0000
iter:   8 02:16:46 -2157.686603c  -3.29  -4.07c   +2.0000
iter:   9 02:26:37 -2157.578674c  -4.13  -4.28c   +2.0000
iter:  10 02:36:29 -2157.597526c  -4.44  -4.53c   +2.0000
iter:  11 02:46:21 -2157.605288c  -4.24  -4.81c   +2.0000
iter:  12 02:56:12 -2157.604469c  -4.09  -4.90c   +2.0000
iter:  13 03:06:03 -2157.618427c  -4.82  -4.72c   +2.0000
iter:  14 03:15:55 -2157.610221c  -5.05  -4.81c   +2.0000
iter:  15 03:25:46 -2157.615130c  -5.22  -5.46c   +2.0000
iter:  16 03:35:37 -2157.617510c  -5.45  -5.57c   +2.0000
iter:  17 03:45:28 -2157.619016c  -6.05  -5.37c   +2.0000
iter:  18 03:55:18 -2157.620439c  -5.97  -5.38c   +2.0000
iter:  19 04:05:09 -2157.619269c  -5.99  -5.95c   +2.0000
iter:  20 04:14:58 -2157.618586c  -6.45  -5.68c   +2.0000
iter:  21 04:24:48 -2157.618574c  -6.87  -5.81c   +2.0000
iter:  22 04:34:38 -2157.618636c  -6.83  -5.88c   +2.0000
iter:  23 04:44:29 -2157.618403c  -7.41c -5.93c   +2.0000

Occupied states converged after 24 e/g evaluations
Converge unoccupied states:
                                   wfs    
           time        Energy:     error(ev^2):
iter:   1  05:09:57   33.101120     3.5e-01
iter:   2  05:22:40   33.093075     1.3e-01
iter:   3  05:35:23   33.092392     4.8e-02
iter:   4  05:48:07   33.091362     9.9e-03
iter:   5  06:00:50   33.091178     1.2e-02
iter:   6  06:13:32   33.091080     5.7e-03
iter:   7  06:26:16   33.091860     4.3e-02
iter:   8  06:38:59   33.092108     1.2e-01
iter:   9  06:51:43   33.091656     1.0e-01
iter:  10  07:04:25   33.091598     9.5e-02
iter:  11  07:17:09   33.091591     4.7e-02
iter:  12  07:29:52   33.091878     1.2e-01
iter:  13  07:42:37   33.091669     8.1e-02
iter:  14  07:55:20   33.091154     8.3e-03
iter:  15  08:08:03   33.091111     1.3e-02
iter:  16  08:20:47   33.091118     9.1e-03
iter:  17  08:33:30   33.091005     2.7e-03
iter:  18  08:46:12   33.090968     1.1e-03
iter:  19  08:58:55   33.090986     1.3e-03
iter:  20  09:11:37   33.091004     4.1e-03
iter:  21  09:24:19   33.090990     1.9e-03
iter:  22  09:37:02   33.090986     1.4e-03
iter:  23  09:49:44   33.090978     3.5e-04

Unoccupied orbitals converged after 23 iterations

Converged after 23 iterations.

Dipole moment: (0.906830, 0.906830, 0.906830) |e|*Ang

Total magnetic moment: (0.000000, 0.000000, 2.000000)
Local magnetic moments:
   0 C  ( 0.000000,  0.000000,  0.000003)
   1 C  ( 0.000000,  0.000000,  0.000004)
   2 C  ( 0.000000,  0.000000,  0.000004)
   3 C  ( 0.000000,  0.000000,  0.000004)
   4 C  ( 0.000000,  0.000000,  0.000322)
   5 C  ( 0.000000,  0.000000,  0.000088)
   6 C  ( 0.000000,  0.000000,  0.000322)
   7 C  ( 0.000000,  0.000000,  0.000322)
   8 C  ( 0.000000,  0.000000,  0.000053)
   9 C  ( 0.000000,  0.000000, -0.000088)
  10 C  ( 0.000000,  0.000000, -0.000024)
  11 C  ( 0.000000,  0.000000, -0.000088)
  12 C  ( 0.000000,  0.000000,  0.001265)
  13 C  ( 0.000000,  0.000000,  0.000113)
  14 C  ( 0.000000,  0.000000,  0.001265)
  15 C  ( 0.000000,  0.000000,  0.000090)
  16 C  ( 0.000000,  0.000000,  0.000123)
  17 C  ( 0.000000,  0.000000, -0.000037)
  18 C  ( 0.000000,  0.000000,  0.000935)
  19 C  ( 0.000000,  0.000000, -0.000037)
  20 C  ( 0.000000,  0.000000,  0.000059)
  21 C  ( 0.000000,  0.000000,  0.000137)
  22 C  ( 0.000000,  0.000000,  0.000059)
  23 C  ( 0.000000,  0.000000,  0.000921)
  24 C  ( 0.000000,  0.000000,  0.000053)
  25 C  ( 0.000000,  0.000000, -0.000088)
  26 C  ( 0.000000,  0.000000, -0.000088)
  27 C  ( 0.000000,  0.000000, -0.000024)
  28 C  ( 0.000000,  0.000000,  0.000090)
  29 C  ( 0.000000,  0.000000,  0.000113)
  30 C  ( 0.000000,  0.000000,  0.001265)
  31 C  ( 0.000000,  0.000000,  0.001265)
  32 C  ( 0.000000,  0.000000, -0.000088)
  33 C  ( 0.000000,  0.000000, -0.001169)
  34 C  ( 0.000000,  0.000000, -0.000099)
  35 C  ( 0.000000,  0.000000, -0.000099)
  36 C  ( 0.000000,  0.000000,  0.000115)
  37 C  ( 0.000000,  0.000000,  0.000844)
  38 C  ( 0.000000,  0.000000,  0.000652)
  39 C  ( 0.000000,  0.000000,  0.000115)
  40 C  ( 0.000000,  0.000000,  0.002370)
  41 C  ( 0.000000,  0.000000, -0.000263)
  42 C  ( 0.000000,  0.000000, -0.000133)
  43 C  ( 0.000000,  0.000000, -0.000101)
  44 C  ( 0.000000,  0.000000,  0.000881)
  45 C  ( 0.000000,  0.000000,  0.000114)
  46 C  ( 0.000000,  0.000000,  0.000137)
  47 C  ( 0.000000,  0.000000,  0.001175)
  48 C  ( 0.000000,  0.000000,  0.000123)
  49 C  ( 0.000000,  0.000000, -0.000037)
  50 C  ( 0.000000,  0.000000, -0.000037)
  51 C  ( 0.000000,  0.000000,  0.000935)
  52 C  ( 0.000000,  0.000000,  0.000921)
  53 C  ( 0.000000,  0.000000,  0.000137)
  54 C  ( 0.000000,  0.000000,  0.000059)
  55 C  ( 0.000000,  0.000000,  0.000059)
  56 C  ( 0.000000,  0.000000,  0.002370)
  57 C  ( 0.000000,  0.000000, -0.000263)
  58 C  ( 0.000000,  0.000000, -0.000101)
  59 C  ( 0.000000,  0.000000, -0.000133)
  60 C  ( 0.000000,  0.000000,  0.001175)
  61 C  ( 0.000000,  0.000000,  0.000114)
  62 C  ( 0.000000,  0.000000,  0.000137)
  63 C  ( 0.000000,  0.000000,  0.000881)
  64 C  ( 0.000000,  0.000000, -0.000600)
  65 C  ( 0.000000,  0.000000, -0.000069)
  66 C  ( 0.000000,  0.000000, -0.000125)
  67 C  ( 0.000000,  0.000000, -0.000125)
  68 C  ( 0.000000,  0.000000,  0.000058)
  69 C  ( 0.000000,  0.000000,  0.000599)
  70 C  ( 0.000000,  0.000000,  0.000001)
  71 C  ( 0.000000,  0.000000,  0.000058)
  72 C  ( 0.000000,  0.000000,  0.000053)
  73 C  ( 0.000000,  0.000000, -0.000024)
  74 C  ( 0.000000,  0.000000, -0.000088)
  75 C  ( 0.000000,  0.000000, -0.000088)
  76 C  ( 0.000000,  0.000000,  0.001265)
  77 C  ( 0.000000,  0.000000,  0.000113)
  78 C  ( 0.000000,  0.000000,  0.000090)
  79 C  ( 0.000000,  0.000000,  0.001265)
  80 C  ( 0.000000,  0.000000, -0.000088)
  81 C  ( 0.000000,  0.000000, -0.000099)
  82 C  ( 0.000000,  0.000000, -0.000099)
  83 C  ( 0.000000,  0.000000, -0.001169)
  84 C  ( 0.000000,  0.000000,  0.000652)
  85 C  ( 0.000000,  0.000000,  0.000844)
  86 C  ( 0.000000,  0.000000,  0.000115)
  87 C  ( 0.000000,  0.000000,  0.000115)
  88 C  ( 0.000000,  0.000000,  0.002370)
  89 C  ( 0.000000,  0.000000, -0.000101)
  90 C  ( 0.000000,  0.000000, -0.000133)
  91 C  ( 0.000000,  0.000000, -0.000263)
  92 C  ( 0.000000,  0.000000,  0.000137)
  93 C  ( 0.000000,  0.000000,  0.000114)
  94 C  ( 0.000000,  0.000000,  0.000881)
  95 C  ( 0.000000,  0.000000,  0.001175)
  96 C  ( 0.000000,  0.000000, -0.000088)
  97 C  ( 0.000000,  0.000000, -0.000099)
  98 C  ( 0.000000,  0.000000, -0.001169)
  99 C  ( 0.000000,  0.000000, -0.000099)
 100 C  ( 0.000000,  0.000000,  0.000115)
 101 C  ( 0.000000,  0.000000,  0.000844)
 102 C  ( 0.000000,  0.000000,  0.000115)
 103 C  ( 0.000000,  0.000000,  0.000652)
 104 C  ( 0.000000,  0.000000, -0.000081)
 105 C  ( 0.000000,  0.000000, -0.000476)
 106 C  ( 0.000000,  0.000000, -0.000476)
 107 C  ( 0.000000,  0.000000, -0.000476)
 108 C  ( 0.000000,  0.000000,  0.006205)
 109 C  ( 0.000000,  0.000000,  0.000160)
 110 C  ( 0.000000,  0.000000,  0.006205)
 111 C  ( 0.000000,  0.000000,  0.006205)
 112 C  ( 0.000000,  0.000000,  0.001170)
 113 C  ( 0.000000,  0.000000, -0.001190)
 114 C  ( 0.000000,  0.000000, -0.009960)
 115 C  ( 0.000000,  0.000000, -0.001190)
 116 C  ( 0.000000,  0.000000,  0.015438)
 117 C  ( 0.000000,  0.000000,  0.014374)
 118 C  ( 0.000000,  0.000000,  0.015438)
 119 C  ( 0.000000,  0.000000,  0.233011)
 120 C  ( 0.000000,  0.000000,  0.002370)
 121 C  ( 0.000000,  0.000000, -0.000101)
 122 C  ( 0.000000,  0.000000, -0.000263)
 123 C  ( 0.000000,  0.000000, -0.000133)
 124 C  ( 0.000000,  0.000000,  0.001175)
 125 C  ( 0.000000,  0.000000,  0.000114)
 126 C  ( 0.000000,  0.000000,  0.000881)
 127 C  ( 0.000000,  0.000000,  0.000137)
 128 C  ( 0.000000,  0.000000,  0.001170)
 129 C  ( 0.000000,  0.000000, -0.001190)
 130 C  ( 0.000000,  0.000000, -0.001190)
 131 C  ( 0.000000,  0.000000, -0.009960)
 132 C  ( 0.000000,  0.000000,  0.233011)
 133 C  ( 0.000000,  0.000000,  0.014374)
 134 C  ( 0.000000,  0.000000,  0.015438)
 135 C  ( 0.000000,  0.000000,  0.015438)
 136 C  ( 0.000000,  0.000000, -0.001054)
 137 C  ( 0.000000,  0.000000, -0.000782)
 138 C  ( 0.000000,  0.000000, -0.005729)
 139 C  ( 0.000000,  0.000000, -0.005729)
 140 C  ( 0.000000,  0.000000,  0.003300)
 141 C  ( 0.000000,  0.000000,  0.005174)
 142 C  ( 0.000000,  0.000000,  0.000258)
 143 C  ( 0.000000,  0.000000,  0.003300)
 144 C  ( 0.000000,  0.000000,  0.000123)
 145 C  ( 0.000000,  0.000000,  0.000935)
 146 C  ( 0.000000,  0.000000, -0.000037)
 147 C  ( 0.000000,  0.000000, -0.000037)
 148 C  ( 0.000000,  0.000000,  0.000059)
 149 C  ( 0.000000,  0.000000,  0.000137)
 150 C  ( 0.000000,  0.000000,  0.000921)
 151 C  ( 0.000000,  0.000000,  0.000059)
 152 C  ( 0.000000,  0.000000,  0.002370)
 153 C  ( 0.000000,  0.000000, -0.000133)
 154 C  ( 0.000000,  0.000000, -0.000101)
 155 C  ( 0.000000,  0.000000, -0.000263)
 156 C  ( 0.000000,  0.000000,  0.000137)
 157 C  ( 0.000000,  0.000000,  0.000114)
 158 C  ( 0.000000,  0.000000,  0.001175)
 159 C  ( 0.000000,  0.000000,  0.000881)
 160 C  ( 0.000000,  0.000000, -0.000600)
 161 C  ( 0.000000,  0.000000, -0.000125)
 162 C  ( 0.000000,  0.000000, -0.000125)
 163 C  ( 0.000000,  0.000000, -0.000069)
 164 C  ( 0.000000,  0.000000,  0.000001)
 165 C  ( 0.000000,  0.000000,  0.000599)
 166 C  ( 0.000000,  0.000000,  0.000058)
 167 C  ( 0.000000,  0.000000,  0.000058)
 168 C  ( 0.000000,  0.000000,  0.002370)
 169 C  ( 0.000000,  0.000000, -0.000133)
 170 C  ( 0.000000,  0.000000, -0.000263)
 171 C  ( 0.000000,  0.000000, -0.000101)
 172 C  ( 0.000000,  0.000000,  0.000881)
 173 C  ( 0.000000,  0.000000,  0.000114)
 174 C  ( 0.000000,  0.000000,  0.001175)
 175 C  ( 0.000000,  0.000000,  0.000137)
 176 C  ( 0.000000,  0.000000,  0.001170)
 177 C  ( 0.000000,  0.000000, -0.009960)
 178 C  ( 0.000000,  0.000000, -0.001190)
 179 C  ( 0.000000,  0.000000, -0.001190)
 180 C  ( 0.000000,  0.000000,  0.015438)
 181 C  ( 0.000000,  0.000000,  0.014374)
 182 C  ( 0.000000,  0.000000,  0.233011)
 183 C  ( 0.000000,  0.000000,  0.015438)
 184 C  ( 0.000000,  0.000000, -0.001054)
 185 C  ( 0.000000,  0.000000, -0.005729)
 186 C  ( 0.000000,  0.000000, -0.005729)
 187 C  ( 0.000000,  0.000000, -0.000782)
 188 C  ( 0.000000,  0.000000,  0.000258)
 189 C  ( 0.000000,  0.000000,  0.005174)
 190 C  ( 0.000000,  0.000000,  0.003300)
 191 C  ( 0.000000,  0.000000,  0.003300)
 192 C  ( 0.000000,  0.000000, -0.000600)
 193 C  ( 0.000000,  0.000000, -0.000125)
 194 C  ( 0.000000,  0.000000, -0.000069)
 195 C  ( 0.000000,  0.000000, -0.000125)
 196 C  ( 0.000000,  0.000000,  0.000058)
 197 C  ( 0.000000,  0.000000,  0.000599)
 198 C  ( 0.000000,  0.000000,  0.000058)
 199 C  ( 0.000000,  0.000000,  0.000001)
 200 C  ( 0.000000,  0.000000, -0.001054)
 201 C  ( 0.000000,  0.000000, -0.005729)
 202 C  ( 0.000000,  0.000000, -0.000782)
 203 C  ( 0.000000,  0.000000, -0.005729)
 204 C  ( 0.000000,  0.000000,  0.003300)
 205 C  ( 0.000000,  0.000000,  0.005174)
 206 C  ( 0.000000,  0.000000,  0.003300)
 207 C  ( 0.000000,  0.000000,  0.000258)
 208 C  ( 0.000000,  0.000000,  0.000569)
 209 C  ( 0.000000,  0.000000,  0.000569)
 210 C  ( 0.000000,  0.000000,  0.000569)
 211 C  ( 0.000000,  0.000000,  0.000124)
 212 N  ( 0.000000,  0.000000, -0.001112)
 213 C  ( 0.000000,  0.000000,  0.000124)
 214 C  ( 0.000000,  0.000000,  0.000124)

Energy contributions relative to reference atoms: (reference = -221394.138216)

Kinetic:       +1741.584761
Potential:     -1571.355280
External:        +0.000000
XC:            -2330.695177
Entropy (-ST):   +0.000000
Local:           +2.847120
SIC:             +0.000000
--------------------------
Free energy:   -2157.618576
Extrapolated:  -2157.618576

HYB_GGA_XC_HSE06 + 0.25 * EXX(omega = 0.11 bohr^-1)
Short-range Coulomb: erfc(omega*r)/r (omega = 0.11 bohr^-1)
Spin contamination: 0.179790 electrons
                   Up                     Down
 Band  Eigenvalues  Occupancy  Eigenvalues  Occupancy
    0    -12.12262    1.00000    -12.11630    1.00000
    1    -11.20826    1.00000    -11.20456    1.00000
    2    -11.02003    1.00000    -11.01721    1.00000
    3    -11.02003    1.00000    -11.01721    1.00000
    4    -10.97425    1.00000    -10.96564    1.00000
    5    -10.97425    1.00000    -10.96564    1.00000
    6    -10.88386    1.00000    -10.86887    1.00000
    7    -10.28785    1.00000    -10.28391    1.00000
    8     -9.92368    1.00000     -9.92134    1.00000
    9     -9.92368    1.00000     -9.92134    1.00000
   10     -9.91495    1.00000     -9.91264    1.00000
   11     -9.91495    1.00000     -9.91264    1.00000
   12     -9.90067    1.00000     -9.89555    1.00000
   13     -9.87466    1.00000     -9.86710    1.00000
   14     -9.87466    1.00000     -9.86710    1.00000
   15     -9.86272    1.00000     -9.85912    1.00000
   16     -9.81711    1.00000     -9.79598    1.00000
   17     -9.81711    1.00000     -9.79598    1.00000
   18     -9.63240    1.00000     -9.60238    1.00000
   19     -9.07537    1.00000     -9.06982    1.00000
   20     -8.80245    1.00000     -8.79693    1.00000
   21     -8.79615    1.00000     -8.78875    1.00000
   22     -8.79615    1.00000     -8.78875    1.00000
   23     -8.77212    1.00000     -8.76466    1.00000
   24     -8.77155    1.00000     -8.75139    1.00000
   25     -8.77155    1.00000     -8.75139    1.00000
   26     -8.60066    1.00000     -8.56887    1.00000
   27     -7.91924    1.00000     -7.90431    1.00000
   28     -7.71063    1.00000     -7.70418    1.00000
   29     -7.71063    1.00000     -7.70418    1.00000
   30     -7.68967    1.00000     -7.67685    1.00000
   31     -7.68967    1.00000     -7.67685    1.00000
   32     -7.62722    1.00000     -7.61683    1.00000
   33     -7.26793    1.00000     -7.25143    1.00000
   34     -6.73103    1.00000     -6.72759    1.00000
   35     -6.73103    1.00000     -6.72759    1.00000
   36     -6.72516    1.00000     -6.72440    1.00000
   37     -6.72418    1.00000     -6.72067    1.00000
   38     -6.72418    1.00000     -6.72067    1.00000
   39     -6.70978    1.00000     -6.70625    1.00000
   40     -6.70835    1.00000     -6.70384    1.00000
   41     -6.70835    1.00000     -6.70384    1.00000
   42     -6.69642    1.00000     -6.69496    1.00000
   43     -6.68901    1.00000     -6.68633    1.00000
   44     -6.68901    1.00000     -6.68633    1.00000
   45     -6.68255    1.00000     -6.67795    1.00000
   46     -6.68255    1.00000     -6.67795    1.00000
   47     -6.67991    1.00000     -6.67729    1.00000
   48     -6.65382    1.00000     -6.63890    1.00000
   49     -6.65382    1.00000     -6.63890    1.00000
   50     -6.64019    1.00000     -6.62658    1.00000
   51     -6.63709    1.00000     -6.62466    1.00000
   52     -6.63709    1.00000     -6.62466    1.00000
   53     -6.61395    1.00000     -6.61058    1.00000
   54     -6.55078    1.00000     -6.51482    1.00000
   55     -6.55078    1.00000     -6.51482    1.00000
   56     -6.35560    1.00000     -6.33810    1.00000
   57     -6.13629    1.00000     -6.13172    1.00000
   58     -5.89027    1.00000     -5.88813    1.00000
   59     -5.89027    1.00000     -5.88813    1.00000
   60     -5.86001    1.00000     -5.85741    1.00000
   61     -5.85942    1.00000     -5.85410    1.00000
   62     -5.85942    1.00000     -5.85410    1.00000
   63     -5.84508    1.00000     -5.84246    1.00000
   64     -5.84012    1.00000     -5.83593    1.00000
   65     -5.84012    1.00000     -5.83593    1.00000
   66     -5.83754    1.00000     -5.82736    1.00000
   67     -5.82775    1.00000     -5.81993    1.00000
   68     -5.82775    1.00000     -5.81993    1.00000
   69     -5.80763    1.00000     -5.79768    1.00000
   70     -5.79989    1.00000     -5.79412    1.00000
   71     -5.79989    1.00000     -5.79412    1.00000
   72     -5.78052    1.00000     -5.77568    1.00000
   73     -5.78052    1.00000     -5.77568    1.00000
   74     -5.74981    1.00000     -5.73582    1.00000
   75     -5.74548    1.00000     -5.72947    1.00000
   76     -5.74548    1.00000     -5.72947    1.00000
   77     -5.70679    1.00000     -5.69646    1.00000
   78     -5.60371    1.00000     -5.51146    1.00000
   79     -5.60371    1.00000     -5.51146    1.00000
   80     -4.86535    1.00000     -4.77939    1.00000
   81     -4.19726    1.00000     -4.18651    1.00000
   82     -4.01321    1.00000     -4.00819    1.00000
   83     -4.01321    1.00000     -4.00819    1.00000
   84     -3.97601    1.00000     -3.96394    1.00000
   85     -3.97601    1.00000     -3.96394    1.00000
   86     -3.96828    1.00000     -3.96332    1.00000
   87     -3.96467    1.00000     -3.95749    1.00000
   88     -3.96467    1.00000     -3.95749    1.00000
   89     -3.95275    1.00000     -3.94555    1.00000
   90     -3.91213    1.00000     -3.86689    1.00000
   91     -3.91213    1.00000     -3.86689    1.00000
   92     -3.52730    1.00000     -3.44408    1.00000
   93     -2.62902    1.00000     -2.61197    1.00000
   94     -2.56617    1.00000     -2.56201    1.00000
   95     -2.56617    1.00000     -2.56201    1.00000
   96     -2.54450    1.00000     -2.53453    1.00000
   97     -2.54450    1.00000     -2.53453    1.00000
   98     -2.50271    1.00000     -2.49408    1.00000
   99     -2.26324    1.00000     -2.23538    1.00000
  100     -2.05441    1.00000     -2.05113    1.00000
  101     -2.05441    1.00000     -2.05113    1.00000
  102     -2.02487    1.00000     -2.02472    1.00000
  103     -2.01484    1.00000     -2.01295    1.00000
  104     -2.01484    1.00000     -2.01295    1.00000
  105     -2.00661    1.00000     -2.00330    1.00000
  106     -2.00661    1.00000     -2.00330    1.00000
  107     -2.00418    1.00000     -2.00192    1.00000
  108     -2.00335    1.00000     -2.00113    1.00000
  109     -1.98391    1.00000     -1.97747    1.00000
  110     -1.98391    1.00000     -1.97747    1.00000
  111     -1.97509    1.00000     -1.97216    1.00000
  112     -1.97509    1.00000     -1.97216    1.00000
  113     -1.95395    1.00000     -1.94441    1.00000
  114     -1.91762    1.00000     -1.90287    1.00000
  115     -1.90510    1.00000     -1.89307    1.00000
  116     -1.90510    1.00000     -1.89307    1.00000
  117     -1.87334    1.00000     -1.86582    1.00000
  118     -1.86761    1.00000     -1.85776    1.00000
  119     -1.86761    1.00000     -1.85776    1.00000
  120     -1.84515    1.00000     -1.80724    1.00000
  121     -1.84515    1.00000     -1.80724    1.00000
  122     -1.76440    1.00000     -1.76135    1.00000
  123     -1.73559    1.00000     -1.73222    1.00000
  124     -1.73559    1.00000     -1.73222    1.00000
  125     -1.73152    1.00000     -1.72255    1.00000
  126     -1.70932    1.00000     -1.70570    1.00000
  127     -1.70647    1.00000     -1.70224    1.00000
  128     -1.70647    1.00000     -1.70224    1.00000
  129     -1.70138    1.00000     -1.69837    1.00000
  130     -1.69892    1.00000     -1.69182    1.00000
  131     -1.69892    1.00000     -1.69182    1.00000
  132     -1.68967    1.00000     -1.67555    1.00000
  133     -1.67419    1.00000     -1.66757    1.00000
  134     -1.67419    1.00000     -1.66757    1.00000
  135     -1.65167    1.00000     -1.64310    1.00000
  136     -1.65167    1.00000     -1.64310    1.00000
  137     -1.64487    1.00000     -1.63692    1.00000
  138     -1.63996    1.00000     -1.63035    1.00000
  139     -1.63996    1.00000     -1.63035    1.00000
  140     -1.63722    1.00000     -1.61603    1.00000
  141     -1.63722    1.00000     -1.61603    1.00000
  142     -1.63166    1.00000     -1.58691    1.00000
  143     -1.39369    1.00000     -1.37468    1.00000
  144     -1.28655    1.00000     -1.21283    1.00000
  145     -1.28655    1.00000     -1.21283    1.00000
  146     -0.86441    1.00000     -0.83318    1.00000
  147     -0.57547    1.00000     -0.55913    1.00000
  148     -0.56616    1.00000     -0.55913    1.00000
  149     -0.56616    1.00000     -0.55296    1.00000
  150     -0.52275    1.00000     -0.51985    1.00000
  151     -0.52057    1.00000     -0.51580    1.00000
  152     -0.52057    1.00000     -0.51580    1.00000
  153     -0.51139    1.00000     -0.49903    1.00000
  154     -0.49202    1.00000     -0.48476    1.00000
  155     -0.49202    1.00000     -0.48476    1.00000
  156     -0.36501    1.00000     -0.27656    1.00000
  157     -0.36501    1.00000     -0.27656    1.00000
  158      0.69096    1.00000      0.80079    1.00000
  159      1.17566    1.00000      1.19283    1.00000
  160      1.18627    1.00000      1.19440    1.00000
  161      1.18627    1.00000      1.19440    1.00000
  162      1.24687    1.00000      1.25640    1.00000
  163      1.26045    1.00000      1.26451    1.00000
  164      1.27113    1.00000      1.27592    1.00000
  165      1.27113    1.00000      1.27592    1.00000
  166      1.27237    1.00000      1.27878    1.00000
  167      1.27298    1.00000      1.27878    1.00000
  168      1.27298    1.00000      1.28587    1.00000
  169      1.28942    1.00000      1.29252    1.00000
  170      1.29906    1.00000      1.30210    1.00000
  171      1.30087    1.00000      1.30514    1.00000
  172      1.30087    1.00000      1.30514    1.00000
  173      1.32048    1.00000      1.33308    1.00000
  174      1.32048    1.00000      1.33308    1.00000
  175      1.43516    1.00000      1.45378    1.00000
  176      1.44461    1.00000      1.46865    1.00000
  177      1.44461    1.00000      1.46865    1.00000
  178      1.45870    1.00000      1.48147    1.00000
  179      1.83654    1.00000      1.84516    1.00000
  180      1.83654    1.00000      1.84516    1.00000
  181      1.85020    1.00000      1.87846    1.00000
  182      1.93040    1.00000      1.93097    1.00000
  183      1.93596    1.00000      1.93969    1.00000
  184      1.93718    1.00000      1.93969    1.00000
  185      1.93718    1.00000      1.94064    1.00000
  186      1.94089    1.00000      1.94885    1.00000
  187      1.94089    1.00000      1.94885    1.00000
  188      1.95192    1.00000      1.95701    1.00000
  189      1.95192    1.00000      1.95701    1.00000
  190      1.95332    1.00000      1.95709    1.00000
  191      1.96416    1.00000      1.97142    1.00000
  192      1.96416    1.00000      1.97142    1.00000
  193      1.96555    1.00000      1.98223    1.00000
  194      1.97529    1.00000      1.98372    1.00000
  195      1.97529    1.00000      1.98372    1.00000
  196      1.99255    1.00000      2.00779    1.00000
  197      2.00007    1.00000      2.01500    1.00000
  198      2.00007    1.00000      2.01660    1.00000
  199      2.00144    1.00000      2.01660    1.00000
  200      2.21042    1.00000      2.30144    1.00000
  201      2.21042    1.00000      2.30144    1.00000
  202      2.87986    1.00000      2.90262    1.00000
  203      2.89670    1.00000      2.90262    1.00000
  204      2.89670    1.00000      2.90783    1.00000
  205      2.95858    1.00000      2.96075    1.00000
  206      2.95931    1.00000      2.96075    1.00000
  207      2.95931    1.00000      2.96238    1.00000
  208      2.96327    1.00000      2.96474    1.00000
  209      2.97056    1.00000      2.97359    1.00000
  210      2.97056    1.00000      2.97359    1.00000
  211      2.98236    1.00000      2.98711    1.00000
  212      2.98236    1.00000      2.98711    1.00000
  213      2.98999    1.00000      2.99328    1.00000
  214      3.00278    1.00000      3.00674    1.00000
  215      3.00278    1.00000      3.00674    1.00000
  216      3.05710    1.00000      3.06628    1.00000
  217      3.05710    1.00000      3.06628    1.00000
  218      3.06333    1.00000      3.07518    1.00000
  219      3.07201    1.00000      3.08283    1.00000
  220      3.08215    1.00000      3.09140    1.00000
  221      3.11359    1.00000      3.13170    1.00000
  222      3.11359    1.00000      3.13170    1.00000
  223      3.17848    1.00000      3.18238    1.00000
  224      3.20302    1.00000      3.21775    1.00000
  225      3.20302    1.00000      3.21775    1.00000
  226      3.23767    1.00000      3.29317    1.00000
  227      3.43659    1.00000      3.44478    1.00000
  228      3.43659    1.00000      3.44478    1.00000
  229      3.48973    1.00000      3.50502    1.00000
  230      3.54189    1.00000      3.54414    1.00000
  231      3.54189    1.00000      3.54414    1.00000
  232      3.55719    1.00000      3.56324    1.00000
  233      3.55907    1.00000      3.56349    1.00000
  234      3.55907    1.00000      3.56349    1.00000
  235      3.56599    1.00000      3.57265    1.00000
  236      3.56599    1.00000      3.57567    1.00000
  237      3.56730    1.00000      3.57567    1.00000
  238      3.57207    1.00000      3.58140    1.00000
  239      3.58449    1.00000      3.59539    1.00000
  240      3.58695    1.00000      3.59539    1.00000
  241      3.58944    1.00000      3.59614    1.00000
  242      3.58944    1.00000      3.60035    1.00000
  243      3.59875    1.00000      3.61297    1.00000
  244      3.60041    1.00000      3.61297    1.00000
  245      3.60041    1.00000      3.62764    1.00000
  246      3.61996    1.00000      3.62887    1.00000
  247      3.61996    1.00000      3.63569    1.00000
  248      3.62246    1.00000      3.63569    1.00000
  249      3.64143    1.00000      3.65213    1.00000
  250      3.64143    1.00000      3.65213    1.00000
  251      3.66246    1.00000      3.69563    1.00000
  252      3.66246    1.00000      3.69563    1.00000
  253      4.00816    1.00000      4.04099    1.00000
  254      4.04740    1.00000      4.12079    1.00000
  255      4.04740    1.00000      4.12079    1.00000
  256      4.62072    1.00000      4.62970    1.00000
  257      4.62072    1.00000      4.62970    1.00000
  258      4.67944    1.00000      4.69223    1.00000
  259      4.69733    1.00000      4.70814    1.00000
  260      4.71422    1.00000      4.73921    1.00000
  261      4.71422    1.00000      4.73921    1.00000
  262      4.78019    1.00000      4.90159    1.00000
  263      5.20840    1.00000      5.22699    1.00000
  264      5.20840    1.00000      5.22699    1.00000
  265      5.28631    1.00000      5.29522    1.00000
  266      5.29166    1.00000      5.29522    1.00000
  267      5.29166    1.00000      5.29721    1.00000
  268      5.30672    1.00000      5.31317    1.00000
  269      5.30793    1.00000      5.31860    1.00000
  270      5.30793    1.00000      5.31860    1.00000
  271      5.33214    1.00000      5.35294    1.00000
  272      5.39459    1.00000      5.41881    1.00000
  273      5.39459    1.00000      5.41881    1.00000
  274      5.60489    1.00000      5.61097    1.00000
  275      5.60489    1.00000      5.61097    1.00000
  276      5.69938    1.00000      5.72880    1.00000
  277      5.74137    1.00000      5.75876    1.00000
  278      5.75277    1.00000      5.75876    1.00000
  279      5.75391    1.00000      5.75942    1.00000
  280      5.75391    1.00000      5.77442    1.00000
  281      5.75817    1.00000      5.77442    1.00000
  282      5.75817    1.00000      5.77498    1.00000
  283      5.78746    1.00000      5.80222    1.00000
  284      5.82037    1.00000      5.83523    1.00000
  285      5.82037    1.00000      5.83523    1.00000
  286      5.82643    1.00000      5.84632    1.00000
  287      5.99000    1.00000      6.00227    1.00000
  288      5.99000    1.00000      6.00227    1.00000
  289      6.01334    1.00000      6.01690    1.00000
  290      6.04109    1.00000      6.04448    1.00000
  291      6.04527    1.00000      6.04794    1.00000
  292      6.04527    1.00000      6.04794    1.00000
  293      6.06244    1.00000      6.06567    1.00000
  294      6.06591    1.00000      6.06825    1.00000
  295      6.06591    1.00000      6.06825    1.00000
  296      6.06700    1.00000      6.07090    1.00000
  297      6.06700    1.00000      6.07090    1.00000
  298      6.07579    1.00000      6.07887    1.00000
  299      6.07607    1.00000      6.08272    1.00000
  300      6.08429    1.00000      6.08790    1.00000
  301      6.08429    1.00000      6.08790    1.00000
  302      6.11469    1.00000      6.12253    1.00000
  303      6.11469    1.00000      6.12253    1.00000
  304      6.12826    1.00000      6.13933    1.00000
  305      6.12826    1.00000      6.14392    1.00000
  306      6.13211    1.00000      6.14392    1.00000
  307      6.14155    1.00000      6.15252    1.00000
  308      6.14155    1.00000      6.15252    1.00000
  309      6.14715    1.00000      6.15359    1.00000
  310      6.21386    1.00000      6.22221    1.00000
  311      6.21386    1.00000      6.22221    1.00000
  312      6.23940    1.00000      6.24961    1.00000
  313      6.27907    1.00000      6.27992    1.00000
  314      6.28477    1.00000      6.28800    1.00000
  315      6.28532    1.00000      6.28800    1.00000
  316      6.28532    1.00000      6.28814    1.00000
  317      6.29160    1.00000      6.29496    1.00000
  318      6.29160    1.00000      6.29496    1.00000
  319      6.29190    1.00000      6.30298    1.00000
  320      6.30001    1.00000      6.30298    1.00000
  321      6.30001    1.00000      6.30516    1.00000
  322      6.30208    1.00000      6.30822    1.00000
  323      6.30237    1.00000      6.30879    1.00000
  324      6.31524    1.00000      6.32041    1.00000
  325      6.31524    1.00000      6.32041    1.00000
  326      6.32444    1.00000      6.33155    1.00000
  327      6.32746    1.00000      6.33155    1.00000
  328      6.32746    1.00000      6.33426    1.00000
  329      6.33285    1.00000      6.33796    1.00000
  330      6.33285    1.00000      6.33796    1.00000
  331      6.33441    1.00000      6.34026    1.00000
  332      6.34785    1.00000      6.35558    1.00000
  333      6.34785    1.00000      6.35558    1.00000
  334      6.35180    1.00000      6.36517    1.00000
  335      6.35180    1.00000      6.36517    1.00000
  336      6.35490    1.00000      6.36984    1.00000
  337      6.35938    1.00000      6.36984    1.00000
  338      6.35938    1.00000      6.37607    1.00000
  339      6.37175    1.00000      6.37743    1.00000
  340      6.38600    1.00000      6.39602    1.00000
  341      6.38841    1.00000      6.40289    1.00000
  342      6.38841    1.00000      6.40289    1.00000
  343      6.40947    1.00000      6.41794    1.00000
  344      6.40947    1.00000      6.41794    1.00000
  345      6.43159    1.00000      6.44701    1.00000
  346      6.43159    1.00000      6.44701    1.00000
  347      6.43273    1.00000      6.46968    1.00000
  348      6.45143    1.00000      6.47735    1.00000
  349      6.48474    1.00000      6.49808    1.00000
  350      6.48474    1.00000      6.51630    1.00000
  351      6.48773    1.00000      6.52035    1.00000
  352      6.49881    1.00000      6.52035    1.00000
  353      6.59099    1.00000      6.64872    1.00000
  354      6.59099    1.00000      6.64872    1.00000
  355      6.90394    1.00000      6.92098    1.00000
  356      6.91227    1.00000      6.94420    1.00000
  357      6.91227    1.00000      6.94420    1.00000
  358      7.11114    1.00000      7.11861    1.00000
  359      7.11114    1.00000      7.11861    1.00000
  360      7.17789    1.00000      7.18122    1.00000
  361      7.17789    1.00000      7.18122    1.00000
  362      7.17870    1.00000      7.18278    1.00000
  363      7.18652    1.00000      7.18898    1.00000
  364      7.21504    1.00000      7.22222    1.00000
  365      7.21598    1.00000      7.22222    1.00000
  366      7.21690    1.00000      7.22443    1.00000
  367      7.21690    1.00000      7.22777    1.00000
  368      7.23825    1.00000      7.24800    1.00000
  369      7.23825    1.00000      7.24800    1.00000
  370      7.24977    1.00000      7.26140    1.00000
  371      7.24977    1.00000      7.26982    1.00000
  372      7.25193    1.00000      7.26982    1.00000
  373      7.25526    1.00000      7.28091    1.00000
  374      7.25526    1.00000      7.28091    1.00000
  375      7.28018    1.00000      7.28777    1.00000
  376      7.31809    1.00000      7.35555    1.00000
  377      7.31809    1.00000      7.35555    1.00000
  378      7.38517    1.00000      7.43635    1.00000
  379      8.08815    1.00000      8.10756    1.00000
  380      8.24112    1.00000      8.36303    1.00000
  381      8.24112    1.00000      8.36303    1.00000
  382      8.49868    1.00000      8.74658    1.00000
  383      8.72414    1.00000      8.74658    1.00000
  384      8.72414    1.00000      8.75414    1.00000
  385      8.78567    1.00000      8.78864    1.00000
  386      8.78567    1.00000      8.78864    1.00000
  387      8.78756    1.00000      8.79553    1.00000
  388      8.80328    1.00000      8.81165    1.00000
  389      8.80655    1.00000      8.82763    1.00000
  390      8.80698    1.00000      8.82763    1.00000
  391      8.80698    1.00000      8.83886    1.00000
  392      8.87661    1.00000      8.88401    1.00000
  393      8.87661    1.00000      8.88401    1.00000
  394      8.88745    1.00000      8.89712    1.00000
  395      8.97198    1.00000      8.97766    1.00000
  396      8.97198    1.00000      8.97766    1.00000
  397      9.02923    1.00000      9.03907    1.00000
  398      9.03692    1.00000      9.04169    1.00000
  399      9.03692    1.00000      9.04169    1.00000
  400      9.04249    1.00000      9.05132    1.00000
  401      9.04249    1.00000      9.05132    1.00000
  402      9.04980    1.00000      9.06657    1.00000
  403      9.04980    1.00000      9.06657    1.00000
  404      9.06045    1.00000      9.06800    1.00000
  405      9.07452    1.00000      9.09552    1.00000
  406      9.07452    1.00000      9.09552    1.00000
  407      9.10219    1.00000      9.11726    1.00000
  408      9.10494    1.00000      9.12414    1.00000
  409      9.10494    1.00000      9.12414    1.00000
  410      9.10941    1.00000      9.13885    1.00000
  411      9.13741    1.00000      9.14783    1.00000
  412      9.13741    1.00000      9.14783    1.00000
  413      9.74009    1.00000      9.75667    1.00000
  414      9.78354    1.00000      9.83518    1.00000
  415      9.78354    1.00000      9.83518    1.00000
  416      9.90330    1.00000     10.05056    1.00000
  417     10.04097    1.00000     10.05056    1.00000
  418     10.04097    1.00000     10.05725    1.00000
  419     10.05492    1.00000     10.08704    1.00000
  420     10.07968    1.00000     10.08849    1.00000
  421     10.08135    1.00000     10.08849    1.00000
  422     10.08135    1.00000     10.12701    1.00000
  423     10.10809    1.00000     10.16579    1.00000
  424     10.14132    1.00000     10.16579    1.00000
  425     10.14132    1.00000     10.38640    1.00000
  426     11.26224    1.00000     11.48809    1.00000
  427     11.42026    1.00000     11.49150    1.00000
  428     11.42026    1.00000     11.49150    1.00000
  429     12.14650    1.00000     13.12057    1.00000
  430     13.31992    1.00000     16.03549    0.00000
  431     13.31992    1.00000     16.03549    0.00000
  432     17.05513    0.00000     17.05922    0.00000
  433     17.05513    0.00000     17.05922    0.00000
  434     17.06996    0.00000     17.08168    0.00000
  435     17.10633    0.00000     17.12167    0.00000
  436     17.10633    0.00000     17.12167    0.00000
  437     17.13062    0.00000     17.14178    0.00000
  438     17.63054    0.00000     17.63616    0.00000
  439     17.69782    0.00000     17.70639    0.00000
  440     17.69782    0.00000     17.70639    0.00000
  441     17.71250    0.00000     17.72005    0.00000
  442     17.71250    0.00000     17.72005    0.00000
  443     17.78679    0.00000     17.79960    0.00000

Fermi level: 15.28246

Gap: 2.716 eV
Transition (v -> c):
  (s=0, k=0, n=431, [[0.00, 0.00, 0.00]]) -> (s=1, k=0, n=430, [[0.00, 0.00, 0.00]])
No difference between direct/indirect transitions

Forces in eV/Ang:
  0 C     0.00104    0.00104    0.00104
  1 C     0.00506    0.00115    0.00115
  2 C     0.00115    0.00115    0.00506
  3 C     0.00115    0.00506    0.00115
  4 C     0.00209   -0.00200    0.00209
  5 C     0.00110    0.00110    0.00110
  6 C    -0.00200    0.00209    0.00209
  7 C     0.00209    0.00209   -0.00200
  8 C     0.00463    0.00463   -0.00216
  9 C    -0.00250    0.00012   -0.00216
 10 C    -0.00049   -0.00049   -0.00586
 11 C     0.00012   -0.00250   -0.00216
 12 C     0.00515   -0.00378    0.00390
 13 C     0.00373    0.00373   -0.00171
 14 C    -0.00378    0.00515    0.00390
 15 C    -0.00355   -0.00355   -0.00483
 16 C    -0.00675   -0.00675    0.00003
 17 C    -0.00083   -0.00153    0.00560
 18 C    -0.00123   -0.00123    0.00021
 19 C    -0.00153   -0.00083    0.00560
 20 C    -0.00187    0.00427    0.00320
 21 C    -0.00399   -0.00399   -0.00101
 22 C     0.00427   -0.00187    0.00320
 23 C     0.00408    0.00408   -0.00522
 24 C     0.00463   -0.00216    0.00463
 25 C    -0.00250   -0.00216    0.00012
 26 C     0.00012   -0.00216   -0.00250
 27 C    -0.00049   -0.00586   -0.00049
 28 C    -0.00355   -0.00483   -0.00355
 29 C     0.00373   -0.00171    0.00373
 30 C    -0.00378    0.00390    0.00515
 31 C     0.00515    0.00390   -0.00378
 32 C    -0.00101   -0.00054   -0.00054
 33 C     0.00450   -0.00729   -0.00729
 34 C    -0.00098   -0.00445    0.00153
 35 C    -0.00098    0.00153   -0.00445
 36 C     0.00272   -0.00044   -0.00477
 37 C    -0.00613    0.00465    0.00465
 38 C    -0.00768   -0.00180   -0.00180
 39 C     0.00272   -0.00477   -0.00044
 40 C    -0.00467    0.00605   -0.00047
 41 C     0.00027   -0.00411   -0.00044
 42 C    -0.00087   -0.00031   -0.00246
 43 C     0.00092    0.00217    0.00210
 44 C     0.00595    0.00741   -0.00654
 45 C    -0.00098    0.00272    0.00090
 46 C    -0.00184    0.00172   -0.00121
 47 C     0.00783    0.00050   -0.00226
 48 C    -0.00675    0.00003   -0.00675
 49 C    -0.00083    0.00560   -0.00153
 50 C    -0.00153    0.00560   -0.00083
 51 C    -0.00123    0.00021   -0.00123
 52 C     0.00408   -0.00522    0.00408
 53 C    -0.00399   -0.00101   -0.00399
 54 C     0.00427    0.00320   -0.00187
 55 C    -0.00187    0.00320    0.00427
 56 C    -0.00467   -0.00047    0.00605
 57 C     0.00027   -0.00044   -0.00411
 58 C     0.00092    0.00210    0.00217
 59 C    -0.00087   -0.00246   -0.00031
 60 C     0.00783   -0.00226    0.00050
 61 C    -0.00098    0.00090    0.00272
 62 C    -0.00184   -0.00121    0.00172
 63 C     0.00595   -0.00654    0.00741
 64 C    -0.00281    0.00161    0.00161
 65 C    -0.00326    0.00464    0.00464
 66 C    -0.00092    0.00006    0.00216
 67 C    -0.00092    0.00216    0.00006
 68 C     0.00380    0.00354   -0.00095
 69 C    -0.00277   -0.00166   -0.00166
 70 C    -0.00254   -0.00318   -0.00318
 71 C     0.00380   -0.00095    0.00354
 72 C    -0.00216    0.00463    0.00463
 73 C    -0.00586   -0.00049   -0.00049
 74 C    -0.00216    0.00012   -0.00250
 75 C    -0.00216   -0.00250    0.00012
 76 C     0.00390   -0.00378    0.00515
 77 C    -0.00171    0.00373    0.00373
 78 C    -0.00483   -0.00355   -0.00355
 79 C     0.00390    0.00515   -0.00378
 80 C    -0.00054   -0.00101   -0.00054
 81 C     0.00153   -0.00098   -0.00445
 82 C    -0.00445   -0.00098    0.00153
 83 C    -0.00729    0.00450   -0.00729
 84 C    -0.00180   -0.00768   -0.00180
 85 C     0.00465   -0.00613    0.00465
 86 C    -0.00044    0.00272   -0.00477
 87 C    -0.00477    0.00272   -0.00044
 88 C     0.00605   -0.00467   -0.00047
 89 C     0.00217    0.00092    0.00210
 90 C    -0.00031   -0.00087   -0.00246
 91 C    -0.00411    0.00027   -0.00044
 92 C     0.00172   -0.00184   -0.00121
 93 C     0.00272   -0.00098    0.00090
 94 C     0.00741    0.00595   -0.00654
 95 C     0.00050    0.00783   -0.00226
 96 C    -0.00054   -0.00054   -0.00101
 97 C     0.00153   -0.00445   -0.00098
 98 C    -0.00729   -0.00729    0.00450
 99 C    -0.00445    0.00153   -0.00098
100 C    -0.00477   -0.00044    0.00272
101 C     0.00465    0.00465   -0.00613
102 C    -0.00044   -0.00477    0.00272
103 C    -0.00180   -0.00180   -0.00768
104 C    -0.00471   -0.00471   -0.00471
105 C    -0.00125   -0.00637   -0.00637
106 C    -0.00637   -0.00637   -0.00125
107 C    -0.00637   -0.00125   -0.00637
108 C     0.00504    0.02907    0.00504
109 C    -0.00036   -0.00036   -0.00036
110 C     0.02907    0.00504    0.00504
111 C     0.00504    0.00504    0.02907
112 C     0.00183    0.00183   -0.00186
113 C    -0.00714   -0.00689    0.00156
114 C    -0.09805   -0.09805   -0.01037
115 C    -0.00689   -0.00714    0.00156
116 C     0.02039    0.02527   -0.02348
117 C     0.02168    0.02168   -0.02613
118 C     0.02527    0.02039   -0.02348
119 C    -0.02911   -0.02911   -0.00584
120 C     0.00605   -0.00047   -0.00467
121 C     0.00217    0.00210    0.00092
122 C    -0.00411   -0.00044    0.00027
123 C    -0.00031   -0.00246   -0.00087
124 C     0.00050   -0.00226    0.00783
125 C     0.00272    0.00090   -0.00098
126 C     0.00741   -0.00654    0.00595
127 C     0.00172   -0.00121   -0.00184
128 C     0.00183   -0.00186    0.00183
129 C    -0.00714    0.00156   -0.00689
130 C    -0.00689    0.00156   -0.00714
131 C    -0.09805   -0.01037   -0.09805
132 C    -0.02911   -0.00584   -0.02911
133 C     0.02168   -0.02613    0.02168
134 C     0.02527   -0.02348    0.02039
135 C     0.02039   -0.02348    0.02527
136 C    -0.01213    0.00024    0.00024
137 C     0.00351    0.00744    0.00744
138 C    -0.09792    0.08813    0.01707
139 C    -0.09792    0.01707    0.08813
140 C     0.01076   -0.00104   -0.00800
141 C     0.03188   -0.00955   -0.00955
142 C     0.00540    0.00020    0.00020
143 C     0.01076   -0.00800   -0.00104
144 C     0.00003   -0.00675   -0.00675
145 C     0.00021   -0.00123   -0.00123
146 C     0.00560   -0.00153   -0.00083
147 C     0.00560   -0.00083   -0.00153
148 C     0.00320    0.00427   -0.00187
149 C    -0.00101   -0.00399   -0.00399
150 C    -0.00522    0.00408    0.00408
151 C     0.00320   -0.00187    0.00427
152 C    -0.00047   -0.00467    0.00605
153 C    -0.00246   -0.00087   -0.00031
154 C     0.00210    0.00092    0.00217
155 C    -0.00044    0.00027   -0.00411
156 C    -0.00121   -0.00184    0.00172
157 C     0.00090   -0.00098    0.00272
158 C    -0.00226    0.00783    0.00050
159 C    -0.00654    0.00595    0.00741
160 C     0.00161   -0.00281    0.00161
161 C     0.00216   -0.00092    0.00006
162 C     0.00006   -0.00092    0.00216
163 C     0.00464   -0.00326    0.00464
164 C    -0.00318   -0.00254   -0.00318
165 C    -0.00166   -0.00277   -0.00166
166 C     0.00354    0.00380   -0.00095
167 C    -0.00095    0.00380    0.00354
168 C    -0.00047    0.00605   -0.00467
169 C    -0.00246   -0.00031   -0.00087
170 C    -0.00044   -0.00411    0.00027
171 C     0.00210    0.00217    0.00092
172 C    -0.00654    0.00741    0.00595
173 C     0.00090    0.00272   -0.00098
174 C    -0.00226    0.00050    0.00783
175 C    -0.00121    0.00172   -0.00184
176 C    -0.00186    0.00183    0.00183
177 C    -0.01037   -0.09805   -0.09805
178 C     0.00156   -0.00689   -0.00714
179 C     0.00156   -0.00714   -0.00689
180 C    -0.02348    0.02527    0.02039
181 C    -0.02613    0.02168    0.02168
182 C    -0.00584   -0.02911   -0.02911
183 C    -0.02348    0.02039    0.02527
184 C     0.00024   -0.01213    0.00024
185 C     0.01707   -0.09792    0.08813
186 C     0.08813   -0.09792    0.01707
187 C     0.00744    0.00351    0.00744
188 C     0.00020    0.00540    0.00020
189 C    -0.00955    0.03188   -0.00955
190 C    -0.00104    0.01076   -0.00800
191 C    -0.00800    0.01076   -0.00104
192 C     0.00161    0.00161   -0.00281
193 C     0.00216    0.00006   -0.00092
194 C     0.00464    0.00464   -0.00326
195 C     0.00006    0.00216   -0.00092
196 C    -0.00095    0.00354    0.00380
197 C    -0.00166   -0.00166   -0.00277
198 C     0.00354   -0.00095    0.00380
199 C    -0.00318   -0.00318   -0.00254
200 C     0.00024    0.00024   -0.01213
201 C     0.01707    0.08813   -0.09792
202 C     0.00744    0.00744    0.00351
203 C     0.08813    0.01707   -0.09792
204 C    -0.00800   -0.00104    0.01076
205 C    -0.00955   -0.00955    0.03188
206 C    -0.00104   -0.00800    0.01076
207 C     0.00020    0.00020    0.00540
208 C     0.05077   -0.01753   -0.01753
209 C    -0.01753   -0.01753    0.05077
210 C    -0.01753    0.05077   -0.01753
211 C    -0.01987    0.00473   -0.01987
212 N     0.19258    0.19258    0.19258
213 C     0.00473   -0.01987   -0.01987
214 C    -0.01987   -0.01987    0.00473

System changes: positions 

Initializing position-dependent things.

Density initialized from wave functions
        .--------C----------------.  
       /|           C             |  
      / | C   C   C  C C   C      |  
     / C|    C  C    C  C     C   |  
    /  C|C    C CCC    C CCC   C  |  
   /    C C C    C C C    N CC    |  
  /  C C| CCCCCC  C C C    C CC   |  
 *    C C   CCCCC    C C C    C C |  
 |C    CCC C  CCCCC C  CCCCC   C C|  
 |   C  CCC C    CCC C C CCCCC    C  
 |  C C | CCCC C  C CCC C  CC C   |  
 C   C  C   C C C    CCC C   CC C |  
 |    CCCC C C CCCCC C CCCC C  C  |  
 |     C.CC-C-C-C-CC-C-C-C-C-C----.  
 |  C C/C CCCC   C C CC C C CCC  /   
 |   CC     C CC    C C      C  /    
 |   /C C      CCC     C C     /     
 |  /    C C      C C      CC /      
 | /C       C        C C     /       
 |/                     C   /        
 C----------------C--------*         

Positions:
   0 C      0.002348    0.002348    0.002348    ( 0.0000,  0.0000,  0.0000)
   1 C     -0.000265    1.774181    1.774181    ( 0.0000,  0.0000,  0.0000)
   2 C      1.774181    1.774181   -0.000265    ( 0.0000,  0.0000,  0.0000)
   3 C      1.774181   -0.000265    1.774181    ( 0.0000,  0.0000,  0.0000)
   4 C      2.660221    0.886102    2.660221    ( 0.0000,  0.0000,  0.0000)
   5 C      0.887838    0.887838    0.887838    ( 0.0000,  0.0000,  0.0000)
   6 C      0.886102    2.660221    2.660221    ( 0.0000,  0.0000,  0.0000)
   7 C      2.660221    2.660221    0.886102    ( 0.0000,  0.0000,  0.0000)
   8 C     -0.001901   -0.001901    3.550128    ( 0.0000,  0.0000,  0.0000)
   9 C     -0.001437    1.771916    5.320272    ( 0.0000,  0.0000,  0.0000)
  10 C      1.772674    1.772674    3.546987    ( 0.0000,  0.0000,  0.0000)
  11 C      1.771916   -0.001437    5.320272    ( 0.0000,  0.0000,  0.0000)
  12 C      2.658550    0.886512    6.206863    ( 0.0000,  0.0000,  0.0000)
  13 C      0.885348    0.885348    4.434468    ( 0.0000,  0.0000,  0.0000)
  14 C      0.886512    2.658550    6.206863    ( 0.0000,  0.0000,  0.0000)
  15 C      2.659522    2.659522    4.433194    ( 0.0000,  0.0000,  0.0000)
  16 C      0.005267    0.005267    7.096031    ( 0.0000,  0.0000,  0.0000)
  17 C      0.000804    1.776678    8.866735    ( 0.0000,  0.0000,  0.0000)
  18 C      1.773050    1.773050    7.093073    ( 0.0000,  0.0000,  0.0000)
  19 C      1.776678    0.000804    8.866735    ( 0.0000,  0.0000,  0.0000)
  20 C      2.662703    0.886078    9.752258    ( 0.0000,  0.0000,  0.0000)
  21 C      0.889706    0.889706    7.980437    ( 0.0000,  0.0000,  0.0000)
  22 C      0.886078    2.662703    9.752258    ( 0.0000,  0.0000,  0.0000)
  23 C      2.657474    2.657474    7.978291    ( 0.0000,  0.0000,  0.0000)
  24 C     -0.001901    3.550128   -0.001901    ( 0.0000,  0.0000,  0.0000)
  25 C     -0.001437    5.320272    1.771916    ( 0.0000,  0.0000,  0.0000)
  26 C      1.771916    5.320272   -0.001437    ( 0.0000,  0.0000,  0.0000)
  27 C      1.772674    3.546987    1.772674    ( 0.0000,  0.0000,  0.0000)
  28 C      2.659522    4.433194    2.659522    ( 0.0000,  0.0000,  0.0000)
  29 C      0.885348    4.434468    0.885348    ( 0.0000,  0.0000,  0.0000)
  30 C      0.886512    6.206863    2.658550    ( 0.0000,  0.0000,  0.0000)
  31 C      2.658550    6.206863    0.886512    ( 0.0000,  0.0000,  0.0000)
  32 C     -0.001397    3.546567    3.546567    ( 0.0000,  0.0000,  0.0000)
  33 C     -0.002415    5.319904    5.319904    ( 0.0000,  0.0000,  0.0000)
  34 C      1.772027    5.319327    3.546105    ( 0.0000,  0.0000,  0.0000)
  35 C      1.772027    3.546105    5.319327    ( 0.0000,  0.0000,  0.0000)
  36 C      2.657963    4.432249    6.205787    ( 0.0000,  0.0000,  0.0000)
  37 C      0.885247    4.433090    4.433090    ( 0.0000,  0.0000,  0.0000)
  38 C      0.883594    6.206830    6.206830    ( 0.0000,  0.0000,  0.0000)
  39 C      2.657963    6.205787    4.432249    ( 0.0000,  0.0000,  0.0000)
  40 C     -0.000127    3.545987    7.091484    ( 0.0000,  0.0000,  0.0000)
  41 C     -0.010742    5.329716    8.863212    ( 0.0000,  0.0000,  0.0000)
  42 C      1.771208    5.320910    7.092463    ( 0.0000,  0.0000,  0.0000)
  43 C      1.770870    3.548830    8.865694    ( 0.0000,  0.0000,  0.0000)
  44 C      2.658861    4.433938    9.751541    ( 0.0000,  0.0000,  0.0000)
  45 C      0.881596    4.437534    7.977943    ( 0.0000,  0.0000,  0.0000)
  46 C      0.884981    6.208886    9.751935    ( 0.0000,  0.0000,  0.0000)
  47 C      2.660255    6.206450    7.978178    ( 0.0000,  0.0000,  0.0000)
  48 C      0.005267    7.096031    0.005267    ( 0.0000,  0.0000,  0.0000)
  49 C      0.000804    8.866735    1.776678    ( 0.0000,  0.0000,  0.0000)
  50 C      1.776678    8.866735    0.000804    ( 0.0000,  0.0000,  0.0000)
  51 C      1.773050    7.093073    1.773050    ( 0.0000,  0.0000,  0.0000)
  52 C      2.657474    7.978291    2.657474    ( 0.0000,  0.0000,  0.0000)
  53 C      0.889706    7.980437    0.889706    ( 0.0000,  0.0000,  0.0000)
  54 C      0.886078    9.752258    2.662703    ( 0.0000,  0.0000,  0.0000)
  55 C      2.662703    9.752258    0.886078    ( 0.0000,  0.0000,  0.0000)
  56 C     -0.000127    7.091484    3.545987    ( 0.0000,  0.0000,  0.0000)
  57 C     -0.010742    8.863212    5.329716    ( 0.0000,  0.0000,  0.0000)
  58 C      1.770870    8.865694    3.548830    ( 0.0000,  0.0000,  0.0000)
  59 C      1.771208    7.092463    5.320910    ( 0.0000,  0.0000,  0.0000)
  60 C      2.660255    7.978178    6.206450    ( 0.0000,  0.0000,  0.0000)
  61 C      0.881596    7.977943    4.437534    ( 0.0000,  0.0000,  0.0000)
  62 C      0.884981    9.751935    6.208886    ( 0.0000,  0.0000,  0.0000)
  63 C      2.658861    9.751541    4.433938    ( 0.0000,  0.0000,  0.0000)
  64 C     -0.005301    7.094106    7.094106    ( 0.0000,  0.0000,  0.0000)
  65 C      0.007689    8.871192    8.871192    ( 0.0000,  0.0000,  0.0000)
  66 C      1.773928    8.865208    7.093209    ( 0.0000,  0.0000,  0.0000)
  67 C      1.773928    7.093209    8.865208    ( 0.0000,  0.0000,  0.0000)
  68 C      2.662191    7.979080    9.751610    ( 0.0000,  0.0000,  0.0000)
  69 C      0.887164    7.980579    7.980579    ( 0.0000,  0.0000,  0.0000)
  70 C      0.891765    9.755430    9.755430    ( 0.0000,  0.0000,  0.0000)
  71 C      2.662191    9.751610    7.979080    ( 0.0000,  0.0000,  0.0000)
  72 C      3.550128   -0.001901   -0.001901    ( 0.0000,  0.0000,  0.0000)
  73 C      3.546987    1.772674    1.772674    ( 0.0000,  0.0000,  0.0000)
  74 C      5.320272    1.771916   -0.001437    ( 0.0000,  0.0000,  0.0000)
  75 C      5.320272   -0.001437    1.771916    ( 0.0000,  0.0000,  0.0000)
  76 C      6.206863    0.886512    2.658550    ( 0.0000,  0.0000,  0.0000)
  77 C      4.434468    0.885348    0.885348    ( 0.0000,  0.0000,  0.0000)
  78 C      4.433194    2.659522    2.659522    ( 0.0000,  0.0000,  0.0000)
  79 C      6.206863    2.658550    0.886512    ( 0.0000,  0.0000,  0.0000)
  80 C      3.546567   -0.001397    3.546567    ( 0.0000,  0.0000,  0.0000)
  81 C      3.546105    1.772027    5.319327    ( 0.0000,  0.0000,  0.0000)
  82 C      5.319327    1.772027    3.546105    ( 0.0000,  0.0000,  0.0000)
  83 C      5.319904   -0.002415    5.319904    ( 0.0000,  0.0000,  0.0000)
  84 C      6.206830    0.883594    6.206830    ( 0.0000,  0.0000,  0.0000)
  85 C      4.433090    0.885247    4.433090    ( 0.0000,  0.0000,  0.0000)
  86 C      4.432249    2.657963    6.205787    ( 0.0000,  0.0000,  0.0000)
  87 C      6.205787    2.657963    4.432249    ( 0.0000,  0.0000,  0.0000)
  88 C      3.545987   -0.000127    7.091484    ( 0.0000,  0.0000,  0.0000)
  89 C      3.548830    1.770870    8.865694    ( 0.0000,  0.0000,  0.0000)
[...]
  336      6.35725    1.00000      6.37045    1.00000
  337      6.35859    1.00000      6.37045    1.00000
  338      6.35859    1.00000      6.37619    1.00000
  339      6.37013    1.00000      6.37909    1.00000
  340      6.38520    1.00000      6.39629    1.00000
  341      6.38826    1.00000      6.40268    1.00000
  342      6.38826    1.00000      6.40268    1.00000
  343      6.40852    1.00000      6.41725    1.00000
  344      6.40852    1.00000      6.41725    1.00000
  345      6.42699    1.00000      6.44696    1.00000
  346      6.43289    1.00000      6.44696    1.00000
  347      6.43289    1.00000      6.46255    1.00000
  348      6.45029    1.00000      6.47481    1.00000
  349      6.48308    1.00000      6.49462    1.00000
  350      6.48308    1.00000      6.51755    1.00000
  351      6.48582    1.00000      6.51998    1.00000
  352      6.49780    1.00000      6.51998    1.00000
  353      6.59177    1.00000      6.64929    1.00000
  354      6.59177    1.00000      6.64929    1.00000
  355      6.90398    1.00000      6.92096    1.00000
  356      6.91223    1.00000      6.94395    1.00000
  357      6.91223    1.00000      6.94395    1.00000
  358      7.10844    1.00000      7.11606    1.00000
  359      7.10844    1.00000      7.11606    1.00000
  360      7.17687    1.00000      7.18013    1.00000
  361      7.17687    1.00000      7.18013    1.00000
  362      7.17847    1.00000      7.18248    1.00000
  363      7.18667    1.00000      7.18918    1.00000
  364      7.21585    1.00000      7.22270    1.00000
  365      7.21711    1.00000      7.22270    1.00000
  366      7.21711    1.00000      7.22660    1.00000
  367      7.21779    1.00000      7.22753    1.00000
  368      7.23872    1.00000      7.24751    1.00000
  369      7.23872    1.00000      7.24751    1.00000
  370      7.24703    1.00000      7.25975    1.00000
  371      7.24703    1.00000      7.26705    1.00000
  372      7.25061    1.00000      7.26705    1.00000
  373      7.25696    1.00000      7.28195    1.00000
  374      7.25696    1.00000      7.28195    1.00000
  375      7.27923    1.00000      7.28684    1.00000
  376      7.31523    1.00000      7.35377    1.00000
  377      7.31523    1.00000      7.35377    1.00000
  378      7.38137    1.00000      7.43340    1.00000
  379      8.08986    1.00000      8.10950    1.00000
  380      8.24136    1.00000      8.36229    1.00000
  381      8.24136    1.00000      8.36229    1.00000
  382      8.51514    1.00000      8.74403    1.00000
  383      8.72187    1.00000      8.74403    1.00000
  384      8.72187    1.00000      8.76343    1.00000
  385      8.78477    1.00000      8.78768    1.00000
  386      8.78477    1.00000      8.78768    1.00000
  387      8.78797    1.00000      8.79585    1.00000
  388      8.80488    1.00000      8.81039    1.00000
  389      8.80529    1.00000      8.82804    1.00000
  390      8.80799    1.00000      8.82804    1.00000
  391      8.80799    1.00000      8.84032    1.00000
  392      8.87716    1.00000      8.88466    1.00000
  393      8.87716    1.00000      8.88466    1.00000
  394      8.88829    1.00000      8.89814    1.00000
  395      8.97035    1.00000      8.97601    1.00000
  396      8.97035    1.00000      8.97601    1.00000
  397      9.02841    1.00000      9.03794    1.00000
  398      9.03597    1.00000      9.04061    1.00000
  399      9.03597    1.00000      9.04061    1.00000
  400      9.04209    1.00000      9.05037    1.00000
  401      9.04209    1.00000      9.05037    1.00000
  402      9.04871    1.00000      9.06500    1.00000
  403      9.04871    1.00000      9.06571    1.00000
  404      9.05758    1.00000      9.06571    1.00000
  405      9.07416    1.00000      9.09408    1.00000
  406      9.07416    1.00000      9.09408    1.00000
  407      9.10288    1.00000      9.11854    1.00000
  408      9.10524    1.00000      9.12557    1.00000
  409      9.10524    1.00000      9.12557    1.00000
  410      9.11013    1.00000      9.13955    1.00000
  411      9.13771    1.00000      9.14816    1.00000
  412      9.13771    1.00000      9.14816    1.00000
  413      9.74634    1.00000      9.76215    1.00000
  414      9.78482    1.00000      9.83583    1.00000
  415      9.78482    1.00000      9.83583    1.00000
  416      9.92226    1.00000     10.04955    1.00000
  417     10.03954    1.00000     10.04955    1.00000
  418     10.03954    1.00000     10.05807    1.00000
  419     10.05574    1.00000     10.08592    1.00000
  420     10.07912    1.00000     10.08592    1.00000
  421     10.07919    1.00000     10.08624    1.00000
  422     10.07919    1.00000     10.12473    1.00000
  423     10.10576    1.00000     10.16740    1.00000
  424     10.14289    1.00000     10.16740    1.00000
  425     10.14289    1.00000     10.42014    1.00000
  426     11.26222    1.00000     11.49205    1.00000
  427     11.42187    1.00000     11.49211    1.00000
  428     11.42187    1.00000     11.49211    1.00000
  429     12.14521    1.00000     13.11416    1.00000
  430     13.31386    1.00000     16.03892    0.00000
  431     13.31386    1.00000     16.03892    0.00000
  432     17.05414    0.00000     17.05824    0.00000
  433     17.05414    0.00000     17.05824    0.00000
  434     17.07157    0.00000     17.08323    0.00000
  435     17.10660    0.00000     17.12243    0.00000
  436     17.10660    0.00000     17.12243    0.00000
  437     17.13102    0.00000     17.14207    0.00000
  438     17.63247    0.00000     17.63802    0.00000
  439     17.69666    0.00000     17.70554    0.00000
  440     17.69666    0.00000     17.70554    0.00000
  441     17.71284    0.00000     17.72007    0.00000
  442     17.71284    0.00000     17.72007    0.00000
  443     17.78835    0.00000     17.80134    0.00000

Fermi level: 15.18400

Gap: 2.725 eV
Transition (v -> c):
  (s=0, k=0, n=431, [[0.00, 0.00, 0.00]]) -> (s=1, k=0, n=430, [[0.00, 0.00, 0.00]])
No difference between direct/indirect transitions

Forces in eV/Ang:
  0 C     0.00080    0.00080    0.00080
  1 C     0.00043    0.00023    0.00023
  2 C     0.00023    0.00023    0.00043
  3 C     0.00023    0.00043    0.00023
  4 C    -0.00020    0.00000   -0.00020
  5 C     0.00048    0.00048    0.00048
  6 C     0.00000   -0.00020   -0.00020
  7 C    -0.00020   -0.00020    0.00000
  8 C     0.00006    0.00006    0.00051
  9 C    -0.00027    0.00017   -0.00008
 10 C    -0.00039   -0.00039   -0.00020
 11 C     0.00017   -0.00027   -0.00008
 12 C     0.00031   -0.00070   -0.00012
 13 C    -0.00013   -0.00013    0.00025
 14 C    -0.00070    0.00031   -0.00012
 15 C    -0.00077   -0.00077   -0.00061
 16 C     0.00012    0.00012    0.00117
 17 C     0.00058    0.00128    0.00088
 18 C     0.00060    0.00060    0.00007
 19 C     0.00128    0.00058    0.00088
 20 C     0.00062    0.00027    0.00058
 21 C     0.00091    0.00091    0.00069
 22 C     0.00027    0.00062    0.00058
 23 C     0.00051    0.00051   -0.00010
 24 C     0.00006    0.00051    0.00006
 25 C    -0.00027   -0.00008    0.00017
 26 C     0.00017   -0.00008   -0.00027
 27 C    -0.00039   -0.00020   -0.00039
 28 C    -0.00077   -0.00061   -0.00077
 29 C    -0.00013    0.00025   -0.00013
 30 C    -0.00070   -0.00012    0.00031
 31 C     0.00031   -0.00012   -0.00070
 32 C    -0.00043   -0.00045   -0.00045
 33 C    -0.00114   -0.00017   -0.00017
 34 C    -0.00076   -0.00070   -0.00042
 35 C    -0.00076   -0.00042   -0.00070
 36 C    -0.00043   -0.00038   -0.00070
 37 C    -0.00094   -0.00054   -0.00054
 38 C    -0.00097   -0.00022   -0.00022
 39 C    -0.00043   -0.00070   -0.00038
 40 C    -0.00095    0.00056   -0.00030
 41 C     0.00035    0.00062    0.00081
 42 C    -0.00069   -0.00044   -0.00049
 43 C    -0.00002    0.00012   -0.00009
 44 C     0.00004   -0.00012   -0.00034
 45 C    -0.00049   -0.00001   -0.00020
 46 C     0.00022    0.00039    0.00040
 47 C    -0.00025   -0.00036   -0.00040
 48 C     0.00012    0.00117    0.00012
 49 C     0.00058    0.00088    0.00128
 50 C     0.00128    0.00088    0.00058
 51 C     0.00060    0.00007    0.00060
 52 C     0.00051   -0.00010    0.00051
 53 C     0.00091    0.00069    0.00091
 54 C     0.00027    0.00058    0.00062
 55 C     0.00062    0.00058    0.00027
 56 C    -0.00095   -0.00030    0.00056
 57 C     0.00035    0.00081    0.00062
 58 C    -0.00002   -0.00009    0.00012
 59 C    -0.00069   -0.00049   -0.00044
 60 C    -0.00025   -0.00040   -0.00036
 61 C    -0.00049   -0.00020   -0.00001
 62 C     0.00022    0.00040    0.00039
 63 C     0.00004   -0.00034   -0.00012
 64 C     0.00025    0.00069    0.00069
 65 C     0.00113    0.00166    0.00166
 66 C     0.00027    0.00024    0.00020
 67 C     0.00027    0.00020    0.00024
 68 C     0.00095    0.00025   -0.00035
 69 C     0.00026    0.00074    0.00074
 70 C     0.00156    0.00122    0.00122
 71 C     0.00095   -0.00035    0.00025
 72 C     0.00051    0.00006    0.00006
 73 C    -0.00020   -0.00039   -0.00039
 74 C    -0.00008    0.00017   -0.00027
 75 C    -0.00008   -0.00027    0.00017
 76 C    -0.00012   -0.00070    0.00031
 77 C     0.00025   -0.00013   -0.00013
 78 C    -0.00061   -0.00077   -0.00077
 79 C    -0.00012    0.00031   -0.00070
 80 C    -0.00045   -0.00043   -0.00045
 81 C    -0.00042   -0.00076   -0.00070
 82 C    -0.00070   -0.00076   -0.00042
 83 C    -0.00017   -0.00114   -0.00017
 84 C    -0.00022   -0.00097   -0.00022
 85 C    -0.00054   -0.00094   -0.00054
 86 C    -0.00038   -0.00043   -0.00070
 87 C    -0.00070   -0.00043   -0.00038
 88 C     0.00056   -0.00095   -0.00030
 89 C     0.00012   -0.00002   -0.00009
 90 C    -0.00044   -0.00069   -0.00049
 91 C     0.00062    0.00035    0.00081
 92 C     0.00039    0.00022    0.00040
 93 C    -0.00001   -0.00049   -0.00020
 94 C    -0.00012    0.00004   -0.00034
 95 C    -0.00036   -0.00025   -0.00040
 96 C    -0.00045   -0.00045   -0.00043
 97 C    -0.00042   -0.00070   -0.00076
 98 C    -0.00017   -0.00017   -0.00114
 99 C    -0.00070   -0.00042   -0.00076
100 C    -0.00070   -0.00038   -0.00043
101 C    -0.00054   -0.00054   -0.00094
102 C    -0.00038   -0.00070   -0.00043
103 C    -0.00022   -0.00022   -0.00097
104 C    -0.00085   -0.00085   -0.00085
105 C    -0.00079   -0.00074   -0.00074
106 C    -0.00074   -0.00074   -0.00079
107 C    -0.00074   -0.00079   -0.00074
108 C    -0.00139   -0.00143   -0.00139
109 C    -0.00073   -0.00073   -0.00073
110 C    -0.00143   -0.00139   -0.00139
111 C    -0.00139   -0.00139   -0.00143
112 C    -0.00008   -0.00008   -0.00047
113 C    -0.00009   -0.00028   -0.00066
114 C    -0.00274   -0.00274   -0.00101
115 C    -0.00028   -0.00009   -0.00066
116 C     0.00024    0.00040   -0.00088
117 C    -0.00049   -0.00049   -0.00085
118 C     0.00040    0.00024   -0.00088
119 C     0.00014    0.00014   -0.00101
120 C     0.00056   -0.00030   -0.00095
121 C     0.00012   -0.00009   -0.00002
122 C     0.00062    0.00081    0.00035
123 C    -0.00044   -0.00049   -0.00069
124 C    -0.00036   -0.00040   -0.00025
125 C    -0.00001   -0.00020   -0.00049
126 C    -0.00012   -0.00034    0.00004
127 C     0.00039    0.00040    0.00022
128 C    -0.00008   -0.00047   -0.00008
129 C    -0.00009   -0.00066   -0.00028
130 C    -0.00028   -0.00066   -0.00009
131 C    -0.00274   -0.00101   -0.00274
132 C     0.00014   -0.00101    0.00014
133 C    -0.00049   -0.00085   -0.00049
134 C     0.00040   -0.00088    0.00024
135 C     0.00024   -0.00088    0.00040
136 C    -0.00045   -0.00062   -0.00062
137 C     0.00081   -0.00046   -0.00046
138 C    -0.00152    0.00199    0.00067
139 C    -0.00152    0.00067    0.00199
140 C     0.00101    0.00077    0.00070
141 C    -0.00034    0.00016    0.00016
142 C     0.00062   -0.00010   -0.00010
143 C     0.00101    0.00070    0.00077
144 C     0.00117    0.00012    0.00012
145 C     0.00007    0.00060    0.00060
146 C     0.00088    0.00128    0.00058
147 C     0.00088    0.00058    0.00128
148 C     0.00058    0.00027    0.00062
149 C     0.00069    0.00091    0.00091
150 C    -0.00010    0.00051    0.00051
151 C     0.00058    0.00062    0.00027
152 C    -0.00030   -0.00095    0.00056
153 C    -0.00049   -0.00069   -0.00044
154 C    -0.00009   -0.00002    0.00012
155 C     0.00081    0.00035    0.00062
156 C     0.00040    0.00022    0.00039
157 C    -0.00020   -0.00049   -0.00001
158 C    -0.00040   -0.00025   -0.00036
159 C    -0.00034    0.00004   -0.00012
160 C     0.00069    0.00025    0.00069
161 C     0.00020    0.00027    0.00024
162 C     0.00024    0.00027    0.00020
163 C     0.00166    0.00113    0.00166
164 C     0.00122    0.00156    0.00122
165 C     0.00074    0.00026    0.00074
166 C     0.00025    0.00095   -0.00035
167 C    -0.00035    0.00095    0.00025
168 C    -0.00030    0.00056   -0.00095
169 C    -0.00049   -0.00044   -0.00069
170 C     0.00081    0.00062    0.00035
171 C    -0.00009    0.00012   -0.00002
172 C    -0.00034   -0.00012    0.00004
173 C    -0.00020   -0.00001   -0.00049
174 C    -0.00040   -0.00036   -0.00025
175 C     0.00040    0.00039    0.00022
176 C    -0.00047   -0.00008   -0.00008
177 C    -0.00101   -0.00274   -0.00274
178 C    -0.00066   -0.00028   -0.00009
179 C    -0.00066   -0.00009   -0.00028
180 C    -0.00088    0.00040    0.00024
181 C    -0.00085   -0.00049   -0.00049
182 C    -0.00101    0.00014    0.00014
183 C    -0.00088    0.00024    0.00040
184 C    -0.00062   -0.00045   -0.00062
185 C     0.00067   -0.00152    0.00199
186 C     0.00199   -0.00152    0.00067
187 C    -0.00046    0.00081   -0.00046
188 C    -0.00010    0.00062   -0.00010
189 C     0.00016   -0.00034    0.00016
190 C     0.00077    0.00101    0.00070
191 C     0.00070    0.00101    0.00077
192 C     0.00069    0.00069    0.00025
193 C     0.00020    0.00024    0.00027
194 C     0.00166    0.00166    0.00113
195 C     0.00024    0.00020    0.00027
196 C    -0.00035    0.00025    0.00095
197 C     0.00074    0.00074    0.00026
198 C     0.00025   -0.00035    0.00095
199 C     0.00122    0.00122    0.00156
200 C    -0.00062   -0.00062   -0.00045
201 C     0.00067    0.00199   -0.00152
202 C    -0.00046   -0.00046    0.00081
203 C     0.00199    0.00067   -0.00152
204 C     0.00070    0.00077    0.00101
205 C     0.00016    0.00016   -0.00034
206 C     0.00077    0.00070    0.00101
207 C    -0.00010   -0.00010    0.00062
208 C     0.00233   -0.00062   -0.00062
209 C    -0.00062   -0.00062    0.00233
210 C    -0.00062    0.00233   -0.00062
211 C    -0.00000    0.00237   -0.00000
212 N     0.00526    0.00526    0.00526
213 C     0.00237   -0.00000   -0.00000
214 C    -0.00000   -0.00000    0.00237

Writing to triplet-ground-state.gpw (mode='all')

Timing:                                      incl.     excl.
-------------------------------------------------------------------
Density initialized from wave functions:     4.343     4.343   0.0% |
 Symmetrize density:                         0.000     0.000   0.0% |
Forces:                                  29128.291 29128.291  26.7% |----------|
Hamiltonian:                                13.429     0.042   0.0% |
 Atomic:                                     7.238     0.094   0.0% |
  XC Correction:                             7.145     7.145   0.0% |
 Calculate atomic Hamiltonians:              1.959     1.959   0.0% |
 Communicate:                                1.168     1.168   0.0% |
 Initialize Hamiltonian:                     0.000     0.000   0.0% |
 Poisson:                                    0.004     0.004   0.0% |
 XC 3D grid:                                 3.017     3.017   0.0% |
PWDescriptor:                                0.223     0.223   0.0% |
Redistribute:                                0.012     0.012   0.0% |
SCF-cycle:                               79894.590    15.870   0.0% |
 Apply H:                                 9409.047  9408.998   8.6% |--|
  HMM T:                                     0.048     0.048   0.0% |
 Density:                                    4.351     0.000   0.0% |
  Atomic density matrices:                   0.121     0.121   0.0% |
  Mix:                                       3.121     3.121   0.0% |
  Multipole moments:                         0.002     0.002   0.0% |
  Pseudo density:                            1.106     1.106   0.0% |
   Symmetrize density:                       0.000     0.000   0.0% |
 Direct Minimisation step:               70448.385    94.348   0.1% |
  Apply H:                               40306.751 40306.526  37.0% |--------------|
   HMM T:                                    0.226     0.226   0.0% |
  Density:                                  43.060     0.002   0.0% |
   Atomic density matrices:                  1.204     1.204   0.0% |
   Mix:                                     30.742    30.742   0.0% |
   Multipole moments:                        0.020     0.020   0.0% |
   Pseudo density:                          11.092    11.090   0.0% |
    Symmetrize density:                      0.001     0.001   0.0% |
  Get Search Direction:                     39.355    39.355   0.0% |
  Gradient unoccupied orbitals:          29752.912    74.709   0.1% |
   Apply H:                              29657.613 29657.472  27.2% |----------|
    HMM T:                                   0.141     0.141   0.0% |
   Orthonormalize:                          20.591     0.015   0.0% |
    calc_s_matrix:                           1.514     1.514   0.0% |
    inverse-cholesky:                        1.755     1.755   0.0% |
    projections:                            15.021    15.021   0.0% |
    rotate_psi_s:                            2.285     2.285   0.0% |
  Hamiltonian:                             135.075     0.421   0.0% |
   Atomic:                                  70.963     0.522   0.0% |
    XC Correction:                          70.441    70.441   0.1% |
   Calculate atomic Hamiltonians:           19.305    19.305   0.0% |
   Communicate:                             11.966    11.966   0.0% |
   New Kinetic Energy:                       2.760     2.760   0.0% |
   Poisson:                                  0.031     0.031   0.0% |
   XC 3D grid:                              29.629    29.629   0.0% |
  Orthonormalize:                           44.618     0.030   0.0% |
   Orthonormalize:                           4.506     0.004   0.0% |
    calc_s_matrix:                           0.332     0.332   0.0% |
    inverse-cholesky:                        0.386     0.386   0.0% |
    projections:                             3.281     3.281   0.0% |
    rotate_psi_s:                            0.503     0.503   0.0% |
   calc_s_matrix:                            2.927     2.927   0.0% |
   inverse-cholesky:                         3.413     3.413   0.0% |
   projections:                             29.314    29.314   0.0% |
   rotate_psi_s:                             4.427     4.427   0.0% |
  projections:                              32.265    32.265   0.0% |
 Hamiltonian:                               13.687     0.042   0.0% |
  Atomic:                                    7.247     0.110   0.0% |
   XC Correction:                            7.137     7.137   0.0% |
  Calculate atomic Hamiltonians:             1.959     1.959   0.0% |
  Communicate:                               1.151     1.151   0.0% |
  New Kinetic Energy:                        0.280     0.280   0.0% |
  Poisson:                                   0.003     0.003   0.0% |
  XC 3D grid:                                3.006     3.006   0.0% |
 projections:                                3.250     3.250   0.0% |
Set symmetry:                                0.000     0.000   0.0% |
Other:                                      12.879    12.879   0.0% |
-------------------------------------------------------------------
Total:                                             109053.767 100.0%

Memory usage: 5.05 GiB
Date: Fri Sep 20 07:05:32 2024
